# vtk DataFile Version 2.0 
output.vtk, Created by Freefem++, via gregorio
ASCII
DATASET UNSTRUCTURED_GRID
POINTS 7451 double
-3.79965 2.23652 0.040848
-4.13429 2.05574 0.276253
-4.09122 2.24524 0.070091
-4.01836 2.27766 0.330071
-3.96697 2.14613 0.158551
-3.94543 2.24088 0.0554695
-3.90901 2.25709 0.185459
-4.11275 2.15049 0.173172
-4.07633 2.1667 0.303162
-4.05479 2.26145 0.200081
-4.81817 0.732763 -0.840268
-4.76136 0.37264 -0.736193
-5.12328 0.495929 -0.550642
-4.73872 0.559667 -0.434419
-4.78977 0.552702 -0.788231
-4.97072 0.614346 -0.695455
-4.77845 0.646215 -0.637344
-4.94232 0.434285 -0.643417
-4.75004 0.466153 -0.585306
-4.931 0.527798 -0.49253
-7.58244 -0.891248 -0.453516
-8 -0.559587 0.124298
-7.26059 -0.264226 0.250847
-7.58828 -0.999993 0.00381
-7.79122 -0.725418 -0.164609
-7.42152 -0.577737 -0.101334
-7.58536 -0.94562 -0.224853
-7.6303 -0.411906 0.187573
-7.79414 -0.77979 0.064054
-7.42444 -0.632109 0.127328
-5.46564 0.048234 0.998836
-5.51396 -0.351144 0.936321
-5.02851 -0.125769 0.598961
-5.56665 -0.148801 0.504295
-5.4898 -0.151455 0.967578
-5.24708 -0.0387675 0.798898
-5.51614 -0.0502835 0.751565
-5.27124 -0.238457 0.767641
-5.5403 -0.249972 0.720308
-5.29758 -0.137285 0.551628
-4.20269 -2.80441 0.102764
-3.63085 -2.57461 -0.287529
-4.13183 -2.29387 0.255347
-4.14432 -2.47254 -0.273935
-3.91677 -2.68951 -0.0923825
-4.16726 -2.54914 0.179055
-4.1735 -2.63848 -0.0855855
-3.88134 -2.43424 -0.016091
-3.88759 -2.52358 -0.280732
-4.13807 -2.38321 -0.009294
-6.25062 -0.085247 0.575431
-6.51584 -0.423084 -0.15939
-6.46019 0.447486 0.293263
-6.75561 -0.174737 0.413139
-6.38323 -0.254165 0.20802
-6.35541 0.181119 0.434347
-6.88822 -0.343655 0.0457285
-6.86039 0.09163 0.272055
-6.48801 0.012201 0.0669365
-4.88162 0.371746 0.655425
-4.51246 -0.112716 0.623981
-4.65723 0.09269 0.995695
-4.69704 0.129515 0.639703
-4.95507 0.122989 0.627193
-4.76942 0.232218 0.82556
-4.77049 -0.119243 0.611471
-4.58484 -0.010013 0.809838
-4.84287 -0.0165395 0.797328
-3.75099 1.20677 0.090288
-3.64118 0.745776 0.266863
-4.09568 0.790235 0.315934
-3.78936 1.07086 0.69071
-3.69609 0.976272 0.178575
-3.92333 0.998502 0.203111
-3.77017 1.13882 0.390499
-3.86843 0.768006 0.291399
-3.71527 0.908319 0.478787
-3.94252 0.930549 0.503322
-2.18572 0.40145 0.915881
-1.75478 0.245881 0.526965
-1.94554 -0.013967 0.999902
-1.76886 0.356252 0.93439
-1.97025 0.323665 0.721423
-2.06563 0.193741 0.957891
-1.97729 0.378851 0.925135
-1.85016 0.115957 0.763433
-1.76182 0.301067 0.730678
-1.8572 0.171143 0.967146
-5.06116 0.824959 0.710182
-4.88551 0.773989 0.80113
-4.92155 0.772883 0.437198
-5.01596 0.602336 0.857802
-4.97333 0.799474 0.755656
-4.99135 0.798921 0.57369
-5.03856 0.713647 0.783992
-4.90353 0.773436 0.619164
-4.95074 0.688163 0.829466
-4.96876 0.687609 0.6475
-2.34262 2.51752 0.051733
-2.4672 2.85727 -0.311185
-2.29554 2.81673 0.086134
-2.65762 2.74748 0.16058
-2.40491 2.6874 -0.129726
-2.31908 2.66712 0.0689335
-2.50012 2.6325 0.106157
-2.38137 2.837 -0.112526
-2.56241 2.80238 -0.0753025
-2.47658 2.7821 0.123357
-3.50303 -3.76846 -0.636668
-3.49422 -3.29308 -1.15018
-3.31427 -3.71149 -1.25136
-2.90724 -3.34218 -0.858121
-3.49863 -3.53077 -0.893424
-3.40865 -3.73997 -0.944014
-3.20514 -3.55532 -0.747394
-3.40425 -3.50228 -1.20077
-3.20073 -3.31763 -1.00415
-3.11076 -3.52683 -1.05474
-4.0054 2.49156 -0.125899
-3.5956 2.50054 -0.194198
-3.83412 2.54803 0.0159
-3.8005 2.49605 -0.160049
-3.90253 2.36404 -0.0425255
-3.91976 2.5198 -0.0549995
-3.69763 2.36853 -0.076675
-3.71486 2.52428 -0.089149
-3.81689 2.39228 0.028374
-3.73452 -3.68531 -1.05781
-3.52439 -3.6984 -1.15459
-3.61437 -3.4892 -1.104
-3.61877 -3.72688 -0.84724
-6.37864 0.944563 0.328331
-6.25891 0.813305 0.581838
-6.65332 0.772267 0.635298
-6.31878 0.878934 0.455085
-6.41941 0.696025 0.310797
-6.51598 0.858415 0.481815
-6.35955 0.630395 0.43755
-6.45612 0.792786 0.608568
-6.55675 0.609877 0.46428
1.62066 -0.841518 -0.540229
1.89324 0.238579 -0.195511
2.01627 -0.690819 -0.723027
2.25185 -0.211859 0.261412
1.75695 -0.30147 -0.36787
1.81846 -0.766169 -0.631628
1.93625 -0.526689 -0.139408
1.95475 -0.22612 -0.459269
2.07254 0.01336 0.0329505
2.13406 -0.451339 -0.230807
-2.56949 2.06853 0.305158
-2.91403 1.60744 0.564909
-3.02709 2.08175 0.021586
-2.87501 2.07662 0.630995
-2.74176 1.83799 0.435033
-2.79829 2.07514 0.163372
-2.72225 2.07258 0.468077
-2.97056 1.8446 0.293247
-2.89452 1.84203 0.597952
-2.95105 2.07919 0.32629
-5.39985 0.358755 0.933432
-5.34934 0.453264 0.543553
-5.56264 0.558471 0.829524
-5.70805 0.297641 0.954678
-5.37459 0.40601 0.738492
-5.48124 0.458613 0.881478
-5.55395 0.328198 0.944055
-5.45599 0.505868 0.686538
-5.52869 0.375452 0.749116
-5.63535 0.428056 0.892101
-4.17913 0.323834 -0.696515
-4.36183 0.516245 -0.417662
-4.60784 0.019305 -0.528365
-4.46586 0.364911 -0.72315
-4.27048 0.42004 -0.557088
-4.39349 0.17157 -0.61244
-4.3225 0.344372 -0.709832
-4.48483 0.267775 -0.473013
-4.41384 0.440578 -0.570406
-4.53685 0.192108 -0.625757
-5.9377 0.438799 -0.558905
-5.87927 0.529091 -0.848565
-6.25926 0.555743 -0.831354
-6.07929 0.245277 -0.969453
-5.90849 0.483945 -0.703735
-6.09848 0.497271 -0.695129
-6.00849 0.342038 -0.764179
-6.06927 0.542417 -0.839959
-5.97928 0.387184 -0.909009
-6.16928 0.40051 -0.900404
-3.64743 2.72944 0.180305
-3.74077 2.63873 0.0981025
-3.72354 2.48298 0.110576
-3.62151 2.61499 -0.0069465
-3.98168 0.388062 0.141859
-3.76543 0.320245 0.603448
-3.81143 0.566919 0.204361
-3.70331 0.533011 0.435156
-4.03868 0.589149 0.228897
-3.87356 0.354154 0.372653
-3.93055 0.55524 0.459691
-6.17342 0.027823 -0.593282
-6.59748 0.255766 -0.966739
-6.35964 0.547779 -0.240473
-6.21634 0.291783 -0.712318
-6.42837 0.405755 -0.899047
-6.30945 0.551761 -0.535914
-6.38545 0.141794 -0.78001
-6.26653 0.287801 -0.416878
-6.47856 0.401772 -0.603606
-5.98474 0.742767 -0.66955
-5.96122 0.590783 -0.614227
-6.122 0.649255 -0.750452
-5.93201 0.635929 -0.759057
-5.86659 0.345457 -0.129882
-5.96054 -0.099592 -0.035866
-6.02 0.18664 -0.361582
-6.11312 0.446618 -0.185177
-5.91357 0.122933 -0.082874
-6.06698 -0.0358845 -0.314574
-6.16009 0.224094 -0.13817
-1.10421 0.363269 -0.931684
-0.773878 0.737644 -0.67519
-0.520452 0.269543 -0.962988
-0.384634 0.008888 -0.353445
-0.939043 0.550457 -0.803437
-0.812329 0.316406 -0.947336
-0.74442 0.186079 -0.642564
-0.647165 0.503594 -0.819089
-0.579256 0.373266 -0.514317
-0.452543 0.139215 -0.658216
-2.85287 -3.00249 -1.21636
-3.23054 -2.92385 -1.196
-3.06719 -3.3306 -1.25351
-2.88006 -3.17233 -1.03724
-3.06889 -3.13301 -1.02706
-2.98722 -3.33639 -1.05581
-3.0417 -2.96317 -1.20618
-2.96003 -3.16654 -1.23493
-3.14886 -3.12722 -1.22475
-3.38618 -2.05134 -0.098565
-2.37808 -2.56123 -0.134541
-2.49252 -2.47812 0.422472
-2.41131 -1.89586 0.044632
-2.88213 -2.30628 -0.116553
-2.93935 -2.26473 0.161954
-2.89875 -1.9736 -0.0269665
-2.4353 -2.51967 0.143966
-2.39469 -2.22855 -0.0449545
-2.45192 -2.18699 0.233552
-1.85713 -0.413967 0.42138
-1.65927 -0.390905 0.920431
-1.2503 -0.077569 0.384148
-1.80595 -0.084043 0.474172
-1.70702 -0.072512 0.723698
-1.50254 0.084156 0.455557
-1.7582 -0.402436 0.670905
-1.55371 -0.245768 0.402764
-1.45478 -0.234237 0.652289
-2.09043 2.55218 0.167395
-2.0659 2.66009 -0.048555
-2.19298 2.68445 0.126765
-2.18072 2.73841 0.0187895
-2.07816 2.60614 0.05942
-2.21652 2.53485 0.109564
-2.20426 2.58881 0.001589
-4.01665 2.44382 0.136481
-3.97233 2.67361 0.084512
-3.92539 2.49592 0.0761905
-3.99449 2.55872 0.110496
-4.01103 2.46769 0.005291
-3.90323 2.61082 0.050206
-3.98887 2.58259 -0.0206935
-3.92754 1.80484 -0.220103
-4.28096 1.83407 -0.225431
-4.13592 1.88983 -0.461486
-4.146 2.03152 -0.278406
-4.10425 1.81945 -0.222767
-4.03173 1.84734 -0.340795
-4.03677 1.91818 -0.249254
-4.20844 1.86195 -0.343458
-4.21348 1.9328 -0.251918
-4.14096 1.96068 -0.369946
-4.04038 -5 0.949212
-3.62468 -5 1.26221
-3.84559 -4.54287 1.07336
-3.71487 -5 0.728948
-3.83253 -5 1.10571
-3.94299 -4.77144 1.01129
-3.87763 -5 0.83908
-3.73513 -4.77144 1.16779
-3.66977 -5 0.99558
-3.78023 -4.77144 0.901156
-1.37334 0.812082 -0.583544
-0.975724 0.961208 -0.275823
-1.19336 -0.166381 -0.273753
-1.17453 0.886645 -0.429683
-1.07361 0.774863 -0.629367
-1.28335 0.32285 -0.428648
-0.874801 0.849426 -0.475506
-1.08454 0.397413 -0.274788
-0.983618 0.285631 -0.474471
-3.83515 -1.82017 -0.741539
-3.34976 -1.58414 -0.592596
-3.50394 -2.07825 -1.02313
-3.59245 -1.70215 -0.667067
-3.66955 -1.94921 -0.882335
-3.61067 -1.93575 -0.420052
-3.42685 -1.83119 -0.807863
-3.36797 -1.81774 -0.345581
-3.44506 -2.06479 -0.560848
-2.72946 0.769161 0.094533
-2.75119 0.681139 -0.326037
-2.98528 1.02631 -0.281501
-3.08113 0.734324 -0.34324
-2.74032 0.72515 -0.115752
-2.85737 0.897737 -0.093484
-2.90529 0.751742 -0.124353
-2.86823 0.853726 -0.303769
-2.91616 0.707731 -0.334639
-3.03321 0.880319 -0.31237
-2.94023 -2.47675 -0.674772
-3.14499 -2.03044 -0.633684
-3.22209 -2.2775 -0.848951
-3.16321 -2.26404 -0.386669
-3.03914 -4.25341 0.579285
-2.64287 -3.80807 0.20828
-2.47531 -4.18593 0.714333
-2.97264 -3.41482 0.618231
-2.84101 -4.03074 0.393783
-2.75723 -4.21967 0.646809
-3.00589 -3.83412 0.598758
-2.55909 -3.997 0.461307
-2.80776 -3.61144 0.413255
-2.72397 -3.80037 0.666282
-2.39684 -0.595487 -0.803365
-1.98884 -0.54749 -0.836812
-2.24172 -0.466498 -0.098067
-2.21295 -0.01831 -0.514797
-2.19284 -0.571489 -0.820088
-2.31928 -0.530992 -0.450716
-2.3049 -0.306899 -0.659081
-2.11528 -0.506994 -0.46744
-2.1009 -0.2829 -0.675804
-2.22734 -0.242404 -0.306432
-3.36239 -4.55484 -1.31864
-3.11171 -4.25429 -0.873787
-2.86199 -4.55394 -1.36046
-2.79118 -5 -0.96439
-3.23705 -4.40456 -1.09621
-3.11219 -4.55439 -1.33955
-3.07678 -4.77742 -1.14151
-2.98685 -4.40411 -1.11712
-2.95144 -4.62714 -0.919088
-2.82658 -4.77697 -1.16243
-3.88203 2.65205 -0.416886
-3.48121 2.84727 -0.340672
-3.82273 3 -0.474998
-3.72541 2.76868 -0.627028
-3.68162 2.74966 -0.378779
-3.85238 2.82603 -0.445942
-3.80372 2.71037 -0.521957
-3.65197 2.92364 -0.407835
-3.60331 2.80798 -0.48385
-3.77407 2.88434 -0.551013
[...]
POINT_DATA 7451
 
FIELD FieldData 2
velocity 3 7451 double
-0.101078 -0.293725 -0.000244812
1.17829e-030 2.47063e-030 -2.49948e-032
3.47316e-031 9.36015e-031 -3.98357e-033
9.06968e-031 2.39856e-030 1.20209e-033
-0.0698716 -0.170708 0.000566005
-0.0657525 -0.184241 -0.000579129
-0.0693279 -0.188661 0.00282347
-1.68237e-018 -4.11445e-018 2.16082e-021
4.72446e-018 1.10638e-017 -1.81639e-019
8.42668e-030 -3.73753e-030 -2.00996e-030
7.46934e-030 2.51206e-030 -1.57934e-031
-0.35034 -0.0951271 0.000392605
-0.534176 -0.123682 0.00285109
-0.599209 -0.196403 0.00574014
-0.19667 -0.0683749 0.00628981
-0.265514 -0.0858794 0.00682574
-0.346547 -0.129222 0.00738292
-0.45669 -0.119004 0.00471487
-0.505236 -0.150505 0.00426506
-0.576054 -0.165645 0.00439546
8.00231e-029 -2.5076e-031 -3.04893e-032
-0.716746 0.0050101 -0.000740342
-0.932578 -0.000513123 -0.000519055
4.62031e-029 -2.02139e-031 3.86082e-032
-0.46984 0.00325935 -0.00020067
-0.711135 -0.000156604 -0.00231808
-1.14833e-016 6.32128e-020 -2.56356e-019
-0.852815 -0.00010102 -2.69761e-005
-0.41009 0.00475525 -0.00116166
-0.631406 0.000382399 0.000102379
2.70678e-029 2.24849e-030 -4.1141e-032
1.773e-029 9.00218e-031 1.24996e-031
-0.589301 -0.0583095 -0.0028446
-0.743385 -0.0389131 -0.00192496
-8.93174e-017 -6.28777e-018 -1.22431e-018
-0.356597 -0.0315377 -0.00212284
-0.445105 -0.0268263 -0.00225327
-0.340303 -0.0201459 -0.00481328
-0.426979 -0.0174408 -0.00480886
-0.670796 -0.0512808 -0.00153976
-3.55329e-030 -5.39099e-029 4.48822e-031
0.0267057 0.470741 0.0112992
-3.96597e-030 -6.29529e-029 5.35089e-031
-8.199e-031 -9.97447e-030 -2.15215e-031
0.0218384 0.274061 0.00243024
-4.24836e-017 -5.8826e-016 6.78802e-018
-3.72755e-018 -3.67637e-017 -3.72225e-019
0.0243007 0.3085 0.000410159
0.0219084 0.261075 0.00625442
-5.28356e-017 -5.37429e-016 -1.6322e-018
-0.701465 -0.0131225 -0.00206409
-0.844635 -0.00901 0.000232217
-0.76828 -0.0109394 -0.00115571
-0.855393 -0.00386852 -0.000522803
-0.95555 -0.0142486 -0.00162508
-0.836238 -0.0151429 -0.00207182
-0.943176 -0.0039454 -0.00274196
-0.991555 -0.00381674 -0.000291832
-1.07644 -0.0145619 -0.00117073
-0.470066 -0.115426 -0.00165765
-0.486294 -0.0488106 -0.00101985
1.53238e-029 2.47668e-030 -3.94472e-032
-0.523529 -0.0948369 0.00141895
-0.57915 -0.0918805 0.000822232
-0.258899 -0.0559363 0.00259437
-0.537758 -0.0586844 -0.00290904
-0.290216 -0.0403052 -0.0012087
-0.328352 -0.0430427 -0.00140279
-0.344628 -0.386501 0.000401247
-0.369911 -0.226438 0.00639587
-0.48245 -0.26526 0.000484616
-0.172642 -0.175909 0.000609054
-0.368164 -0.32443 0.00186855
-0.412952 -0.325741 0.00141556
-0.301346 -0.315119 0.00119365
-0.439773 -0.254009 0.0046963
-0.294736 -0.243265 0.00544102
-0.323338 -0.241839 0.00166985
-1.20644e-029 -3.36298e-030 1.32623e-031
0.266389 0.0276478 -0.000534666
-1.55596e-029 -4.04315e-030 -5.20722e-031
-3.20668e-030 -2.42889e-031 5.43786e-032
0.139145 0.0188329 -0.00245557
4.2449e-017 2.78014e-018 1.34105e-018
2.40767e-018 2.30051e-019 -5.4769e-020
0.163556 0.0203507 -0.00117047
0.15312 0.01019 -0.00143025
-5.34079e-017 -4.86594e-018 6.79203e-019
2.17898e-017 8.40337e-018 8.90493e-019
2.21534e-030 7.92407e-031 7.70599e-032
-0.422358 -0.159119 -0.00851608
2.39637e-030 7.45197e-031 4.14084e-032
1.07585e-017 4.30434e-018 4.05558e-019
-0.24462 -0.0933978 -0.00781083
1.33563e-016 3.01138e-017 3.40079e-018
-0.241139 -0.0960177 -0.00679789
1.30247e-016 4.87737e-017 4.97344e-018
-0.267315 -0.0928849 -0.00849954
-0.0290504 -0.213036 -0.000311886
-0.0170814 -0.276764 -0.00293441
-0.0107218 -0.202748 0.000650943
-0.0420993 -0.413858 0.00102188
-0.0254237 -0.269232 -0.000438678
-0.0199075 -0.209479 5.01036e-005
-0.0383456 -0.328915 0.000452597
-0.0152127 -0.270698 -0.00121629
-0.031621 -0.38594 -0.000487252
-0.0264121 -0.326926 0.0013547
0.0127981 0.362777 0.0161376
-7.64313e-031 -2.92869e-029 -1.76254e-030
-3.85501e-031 -2.38347e-029 -1.56907e-030
-0.00230858 0.333444 0.0210278
0.00773588 0.211921 0.0135707
0.00659787 0.213021 0.0142059
0.00550022 0.38866 0.0205176
1.38461e-030 1.23562e-029 4.0612e-030
0.00251556 0.203415 0.0146653
0.00112218 0.180138 0.0135693
7.79029e-031 3.08111e-030 -3.06059e-033
-0.081469 -0.369098 -0.000768342
-0.0419583 -0.200502 -0.00117525
-0.0554134 -0.236001 0.000554
-0.0557213 -0.185171 -0.002028
-0.0271632 -0.120088 -0.00108199
-0.0964884 -0.343644 -0.000848048
-0.0678058 -0.308769 -0.000996956
-0.0694285 -0.248665 -0.00123658
-3.12702e-031 -6.75038e-030 -4.22221e-031
-4.45746e-018 -1.091e-016 -8.69182e-018
4.38982e-018 9.52457e-017 7.3574e-018
0.00908233 0.195532 0.0119608
8.57178e-030 1.4671e-031 9.91421e-033
1.1381e-029 1.92626e-031 -2.50244e-033
1.47576e-029 1.42334e-031 1.11796e-032
6.09662e-017 1.37504e-018 2.27833e-020
-0.451136 -0.0100899 -0.00094119
-6.07102e-030 -4.70157e-030 -2.33667e-030
-0.4413 -0.00684399 0.000173381
7.07094e-017 1.01013e-018 8.79384e-021
-0.44917 -0.00585893 -0.000814208
-1.19367e-028 2.69164e-031 -6.02835e-032
0.393564 0.000227855 0.000545188
-4.41173e-029 7.62104e-032 -1.12501e-031
0.383074 -0.00157022 0.0011389
0.339367 -0.00113849 0.000315818
-5.47242e-017 1.29366e-019 -2.64309e-019
0.306679 -0.000815692 0.00122636
0.321624 -0.000132978 0.000957327
0.435397 -0.00063376 0.00130094
0.324457 -0.00100861 0.00146628
-0.0665923 -0.250566 -0.00022251
-0.0904414 -0.21509 -0.00128644
-0.144875 -0.482153 -0.000269836
-0.0664853 -0.230489 -0.000279912
-0.0858971 -0.253742 -0.00152437
-0.112953 -0.40142 -0.000749604
-0.0740156 -0.268439 -0.000487555
-0.143638 -0.394796 -0.000596479
-0.0821258 -0.229607 -0.000684681
-0.120231 -0.410094 -0.000766311
2.56982e-030 2.96678e-031 -6.07911e-032
-0.569224 -0.0867371 0.00468259
5.61777e-030 4.2062e-031 -1.12713e-031
2.47025e-029 1.5136e-030 -1.69669e-031
-0.326669 -0.0385022 0.0078981
-8.63537e-017 -7.33757e-018 3.04681e-018
1.19274e-016 7.1042e-018 -3.78762e-018
-0.316696 -0.03535 0.00710107
-0.328011 -0.0269084 0.00619498
-1.95587e-017 -1.0472e-018 7.3769e-019
-0.345858 -0.078191 -0.00820484
-0.581001 -0.199215 0.00048092
-0.623858 -0.0868391 -0.000682836
-0.349088 -0.0995187 -0.0034948
-0.481893 -0.143116 -0.00389989
-0.500348 -0.0906905 -0.00529794
-0.351173 -0.0931137 -0.00607219
-0.633776 -0.1429 -0.00233793
-0.492794 -0.153273 -0.00143
-0.508044 -0.103357 -0.00391999
-0.533807 -0.017831 -0.00282368
2.76596e-030 7.58469e-032 3.3646e-032
2.47194e-029 4.4087e-031 4.28981e-032
1.13509e-029 2.66781e-031 5.0964e-032
-0.293277 -0.0081114 -0.00260775
-0.288724 -0.00808873 0.000438659
-0.314494 -0.00836178 -0.000239937
-2.09897e-016 -4.85254e-018 -5.04431e-019
-1.009e-016 -3.35628e-018 -6.37645e-019
-9.12856e-030 -2.81879e-030 5.91461e-030
-0.0462323 -0.310747 0.000139205
-0.0464615 -0.265626 -0.000340256
-0.0704779 -0.305643 -0.000883471
-0.0675852 -0.369427 -0.000832722
-0.614695 -0.136141 0.00420514
-0.325878 -0.0330166 0.01074
-0.490624 -0.179389 0.00376162
-0.366657 -0.123699 0.0112334
-0.564603 -0.219319 0.00325294
-0.501563 -0.088353 0.0107536
-0.434359 -0.161166 0.00926807
-0.68702 -0.0148119 0.000583822
-3.14955e-017 -2.10321e-019 -1.1219e-021
-0.691021 -0.0105846 2.17368e-005
-0.433766 -0.0100321 0.00116232
-2.24373e-029 -3.63071e-030 6.54814e-030
-0.436388 -0.00758286 0.00189984
-0.394172 -0.00922676 0.00126667
-0.80117 -0.0165948 0.000641099
-0.504853 -0.00531818 0.000919591
4.50144e-030 1.1758e-031 7.09918e-032
-0.297219 -0.0096247 -0.00176789
-6.76831e-017 -1.86645e-018 3.66846e-020
-9.00552e-017 -2.45476e-018 -8.24821e-019
-0.948314 -0.0442721 -0.00120648
-1.05459 -0.033756 -0.000227003
-0.901117 -0.028202 -0.000818964
-0.83627 -0.0221839 -0.000729111
-1.05756 -0.0423237 -0.000198431
-0.964723 -0.0262294 0.000329027
-1.00845 -0.0251908 0.000199009
1.63098e-017 6.85625e-020 -2.42619e-019
-3.87586e-029 -8.68505e-032 2.07844e-031
-1.43917e-029 3.10014e-032 4.79495e-032
0.386562 -0.00184568 -0.000742876
-2.50235e-017 -1.44403e-020 2.54244e-019
1.04948e-029 -5.20068e-030 1.5676e-029
0.238039 -0.000987024 -0.00241128
-2.59086e-017 1.05507e-020 2.85897e-019
0.266035 -0.00109095 -0.00188127
0.241404 4.01827e-005 -0.00195685
1.08442e-031 -1.07296e-029 -8.89916e-031
-3.57569e-031 -3.14208e-029 -2.1067e-030
-6.47841e-033 -4.19853e-030 -3.11883e-031
-0.00158509 0.183197 0.0134089
0.00257672 0.192345 0.0152564
-8.37276e-006 0.176121 0.0128766
8.7836e-032 -9.27347e-017 4.63759e-030
-9.75161e-020 4.27649e-017 3.50201e-018
8.26591e-019 4.47961e-017 3.91224e-018
0.0206822 0.698593 0.00517062
-0.0240534 0.513323 0.00695825
-0.0198584 0.501315 -0.0167136
-0.0246498 0.588959 -0.0032871
-0.00666978 0.748097 0.00711104
-0.00325068 0.750956 -0.00948192
-0.00646502 0.802334 0.000391745
-0.023398 0.551952 -0.00472447
-0.0243067 0.551177 0.00269883
-0.0229812 0.560741 -0.0118849
0.308697 0.0920157 0.0259532
-2.12218e-029 -1.91464e-030 -4.26146e-031
0.370788 0.00868069 -0.000176882
0.324946 0.0597632 0.00693037
0.197706 0.0179414 0.00030535
0.335381 0.0197556 0.0014158
0.167122 0.0186414 0.0107739
0.341162 0.0273214 0.00234268
0.222708 0.00993022 0.000354625
-2.1372e-018 -2.63507e-017 1.98017e-019
1.04834e-031 1.08411e-030 3.91382e-033
-0.00749301 -0.110023 0.00060863
-0.00791245 -0.11548 0.000623704
-4.46068e-018 -5.51246e-017 4.02727e-019
-0.0165919 -0.12329 -4.9597e-006
-0.0145717 -0.123165 -0.00178463
-7.57418e-018 -2.85441e-017 -4.61755e-019
1.8099e-031 1.34001e-030 4.02491e-033
-0.0297861 -0.121853 -0.00124257
1.31573e-017 6.47524e-017 1.2686e-018
9.88062e-030 -3.44543e-030 -7.71223e-032
-0.0208207 -0.124208 -0.00220167
2.39851e-017 1.27938e-016 2.39457e-018
-0.158938 -0.280044 -0.000340221
1.18866e-030 1.75818e-030 -2.61601e-033
5.62259e-031 1.02932e-030 -1.69942e-032
4.09928e-031 8.12385e-031 -1.18128e-032
-0.103662 -0.168344 0.000428992
-0.101606 -0.177082 0.000799166
-0.0995058 -0.17768 -0.0022399
-5.21482e-017 -8.5147e-017 5.79631e-019
-2.92587e-016 -4.87256e-016 -4.37197e-018
-2.16081e-016 -3.81456e-016 -2.25709e-018
-1.62637e-031 -1.91962e-030 1.5021e-031
-1.41886e-031 -4.60625e-030 3.06463e-031
-3.37054e-031 -8.92553e-030 4.47577e-031
0.00599343 0.231467 -0.00632983
-1.31759e-018 -5.65296e-017 2.24105e-018
-2.58758e-019 -6.81749e-018 3.26364e-019
0.0032421 0.113514 -0.00329266
3.53208e-019 4.1541e-017 -6.42129e-019
0.002516 0.120693 -0.00456901
0.00441834 0.125094 -0.00575447
-4.44329e-029 -1.59385e-030 -1.23989e-031
-4.68365e-029 -2.25151e-031 1.25796e-031
0.390861 0.00343966 -0.00031592
2.04905e-017 3.36728e-019 -3.24541e-020
-2.24056e-017 -2.53111e-019 7.4887e-020
0.312031 0.0061334 -0.00026034
-5.10568e-017 1.02042e-019 3.96784e-019
0.340509 0.00309828 -0.000621617
0.302174 0.000317224 -0.0012973
6.33297e-020 1.15004e-018 6.29274e-020
0.00769492 0.504144 0.0264872
-2.39639e-030 -7.48324e-029 -3.41673e-030
0.00932064 0.276176 0.015238
-1.03335e-017 -2.08198e-016 -1.2492e-017
0.020284 0.449102 0.0163101
0.00902647 0.255725 0.0172619
0.0157505 0.654426 0.0189776
0.0184684 0.472621 0.0206211
0.0205989 -0.0591015 0.000242697
0.018147 -0.014016 -0.00081158
-0.105944 -0.221493 9.67394e-005
-0.105597 -0.113503 -0.00839049
0.0186836 -0.0499263 -0.000159594
-0.0419355 -0.164438 -0.00482191
-0.0445625 -0.103392 -0.00270615
-0.029589 -0.0999276 -0.00673929
-0.0346183 -0.0644072 -0.0059315
-0.0971262 -0.177075 -0.0057669
-0.00191752 0.489719 0.0266607
0.00830197 0.52931 0.025639
0.00856628 0.316158 0.0200562
0.0100088 0.665601 0.0195283
0.000402593 0.461936 -0.0157045
-0.0128683 0.544466 -0.00742695
-0.0108106 0.31343 -0.0140225
-0.000810826 0.482454 -0.0211897
-0.00634423 0.527468 -0.0126582
-0.006875 0.415675 -0.0161394
0.000153825 0.472651 -0.0192592
-0.0134952 0.44775 -0.012847
-0.00758015 0.541176 -0.0143396
-0.0081005 0.413347 -0.0188807
1.94282e-017 6.47085e-017 5.18976e-018
4.79546e-017 8.29496e-018 -2.75733e-018
0.349802 0.392342 -0.00695632
0.251533 0.132291 -0.0100584
1.23336e-029 -7.75558e-018 6.66245e-030
0.248062 0.315229 -0.012563
0.18011 0.145775 -0.0210242
0.271007 0.190201 -0.0247646
0.201968 0.0866907 -0.0186783
0.329163 0.253073 -0.0111131
9.40563e-019 3.74866e-017 3.44464e-018
0.00229673 0.315703 0.017119
2.35403e-031 -2.14974e-029 -1.16719e-030
-0.00220355 0.251315 0.00892386
0.00269214 0.163338 0.0120364
1.36986e-018 5.62461e-017 8.35754e-018
0.000972513 0.154046 0.0081876
0.000133136 0.165133 0.011274
-0.000685602 0.288333 0.0128772
-0.00122762 0.136433 0.00721645
5.54656e-031 3.37989e-030 -1.15811e-032
-0.0385811 -0.354235 -0.000576395
2.85034e-031 1.13233e-029 -1.77501e-031
9.06729e-031 5.3451e-030 -4.19968e-032
-0.0280796 -0.220047 0.000538183
-3.02906e-017 -3.00796e-016 1.49827e-018
1.21018e-029 -3.64719e-030 8.54415e-030
-0.0177891 -0.221 0.00048826
-0.027461 -0.220563 -0.00264257
-2.57682e-017 -2.62496e-016 -1.85235e-018
0.418664 1.84086e-005 -0.000108182
-1.6437e-029 3.99357e-032 -1.66307e-032
-1.70907e-029 3.8932e-032 -1.54089e-033
-2.91467e-029 3.77593e-032 3.86434e-033
0.284772 0.000153996 -5.4168e-005
0.285885 -9.51483e-005 -0.000122217
0.283588 -0.000241423 4.48531e-005
-1.6046e-016 1.85048e-030 -2.63568e-031
-6.32835e-017 2.00287e-030 -5.57232e-031
1.08939e-029 -2.00541e-020 -1.34979e-021
0.161277 0.569613 -0.0184044
-0.0181677 0.802507 0.0168293
-0.0211589 0.648349 -0.0383375
0.0314231 0.684737 0.0155479
0.0740713 0.763129 -0.00673711
0.0505717 0.644112 -0.030871
0.116875 0.695003 -0.0127064
-0.0251147 0.810139 -0.0152104
0.0444591 0.802351 0.01457
0.0328502 0.798329 -0.018279
-6.16896e-029 -8.48803e-033 3.24932e-032
-3.63553e-029 1.50948e-032 7.18209e-032
-4.51711e-029 1.62524e-031 1.15857e-032
0.383666 -0.00194396 0.000295152
1.62105e-017 -4.28507e-022 -8.59806e-020
1.61427e-017 2.90864e-020 -1.29697e-021
0.304789 0.000421379 -0.00129053
7.47901e-019 1.51737e-029 4.60322e-031
0.273274 0.000495621 -0.000610466
0.310698 -0.000630006 -0.000302296
6.57528e-030 3.59632e-030 1.47877e-031
-0.31161 -0.166906 -0.00765713
2.21558e-030 1.15412e-030 7.90594e-032
-0.218282 -0.129226 -0.00582728
-0.216575 -0.108569 -0.00504724
4.76e-016 2.93201e-016 1.56689e-017
-0.36809 -0.167484 -0.0085674
-0.193746 -0.112052 -0.00643558
-0.20902 -0.102204 -0.00645751
-0.709884 -3.32098e-005 0.0050663
1.51668e-028 -1.09051e-031 -3.41018e-031
1.12479e-029 -1.18495e-031 -2.9335e-031
-0.71059 0.00374939 0.00292282
-0.473925 0.00145474 0.00194004
-0.427829 -0.000110977 0.00502261
-0.786997 0.00222941 0.00283868
-1.90481e-029 5.42718e-031 9.95955e-031
-0.402888 0.00240952 0.00166852
-0.430608 0.00451031 0.00267164
-2.97854e-029 -7.64488e-033 5.99918e-032
-1.08732e-029 -1.50982e-031 3.14936e-032
-1.73523e-029 -9.47901e-031 -2.75364e-031
-3.83049e-017 2.67864e-019 -5.58401e-020
-1.01531e-018 -1.4018e-020 1.26787e-020
0.246836 0.000610107 0.000213828
-1.39565e-017 -2.59318e-019 1.90574e-019
0.227745 0.00170798 0.000119301
0.242837 0.00793129 -0.00410195
-6.48777e-029 4.32056e-031 7.23272e-032
0.313385 -0.00285594 -0.00101939
0.263886 -0.00281308 -0.000645946
0.28307 -0.00363502 0.000305394
0.432955 -0.00236364 -0.000117698
0.445919 -0.00265152 1.90573e-005
0.392767 -0.00222294 -0.000650073
-1.37884e-029 -5.89026e-031 1.68657e-032
-2.63218e-029 -1.34296e-032 -1.58736e-032
4.43299e-017 3.95109e-019 -6.04915e-020
5.18323e-017 2.62493e-019 -4.428e-019
0.226303 0.00502687 -0.000574341
3.48674e-018 -2.43336e-020 -3.14081e-020
0.233838 0.000704876 -0.00269562
-4.91644e-029 1.29408e-031 1.67177e-031
0.383108 0.000448869 -0.000504709
-3.27722e-029 8.49093e-032 8.90237e-032
0.236898 -0.000817674 -0.000771014
-8.00239e-017 2.50952e-020 6.15903e-019
0.302495 -0.00123723 -0.00147895
0.245862 -0.000197806 -0.0006958
0.402489 -0.000809698 -0.000734882
0.25991 0.000555247 -0.00205225
-1.31849e-029 7.05171e-032 -9.33055e-032
-3.8853e-029 5.67565e-032 -2.56119e-031
-4.52528e-029 1.91907e-031 -2.0427e-031
2.75855e-017 -3.65041e-019 8.45946e-019
-2.96588e-017 4.78921e-019 -7.85644e-019
0.239686 -0.00247251 0.00607583
-1.93805e-017 2.88993e-019 -3.41973e-019
0.249443 -0.00225063 0.00361964
0.249035 -0.00311142 0.00236583
1.46395e-030 -9.98934e-030 -5.79854e-032
-0.164874 0.136376 -0.00552184
1.91484e-030 -4.799e-030 -1.03077e-031
0.0601754 0.240371 -0.000836911
-0.0567305 0.108239 -0.00304745
1.73896e-018 9.64277e-018 -1.85798e-018
0.006626 0.168395 0.000404454
-0.0614854 0.057431 0.00110283
-0.0673737 0.203177 0.000159676
-0.00658229 0.099526 0.00321776
-5.63636e-030 -2.52642e-030 -8.05017e-031
-4.51457e-029 -5.92436e-030 -4.18281e-031
-7.57904e-030 -1.31127e-029 8.53608e-032
0.181104 0.0426724 0.0381158
0.217887 0.0543971 0.0198603
0.224351 0.129715 0.0421107
2.92217e-030 9.79728e-030 -5.21959e-030
4.91664e-017 3.69165e-017 9.46503e-018
-6.34744e-017 -3.04495e-017 -1.08024e-017
-1.66905e-029 -3.6452e-031 6.85086e-032
-1.08396e-017 -1.28787e-019 4.50774e-020
4.2102e-017 -1.26328e-019 -5.62237e-019
0.247995 0.002746 -0.000715534
-0.0906747 -0.302303 -0.000420779
1.50427e-030 3.65012e-030 4.31326e-033
-0.14154 -0.298062 -0.00112042
3.39502e-030 9.3839e-030 3.18235e-032
-0.064793 -0.177232 0.000125342
-0.121437 -0.311215 -0.00179464
-0.0628671 -0.18824 0.000379669
-0.0869161 -0.193469 -0.0019865
1.12255e-017 2.78386e-017 3.18418e-019
-0.0754528 -0.182721 -0.00117196
-0.244062 -0.331751 -0.00117338
-0.224509 -0.446678 -3.38343e-005
-0.108366 -0.213367 0.00382656
-0.185412 -0.294526 -5.47592e-005
-0.243021 -0.405801 -0.00116878
-0.172173 -0.296266 0.00256214
-0.189095 -0.361729 0.000183896
-0.119541 -0.22786 0.00683341
-0.185924 -0.372121 0.00173962
0.381708 0.00143239 -2.67544e-005
-7.76188e-029 -1.52179e-031 2.94153e-031
-3.18083e-029 -1.09361e-031 5.92861e-032
0.392066 0.000605879 -0.000716738
0.251255 0.00166515 -0.000549196
0.23754 0.00150775 0.000680497
0.398634 0.00113027 -0.000978009
3.45679e-029 -9.49476e-031 -1.2654e-029
0.327924 -0.00106617 -0.00126604
0.288936 -0.000255852 -0.000249772
-1.39259e-029 3.29732e-032 2.28821e-032
-3.69422e-029 -5.08892e-033 -7.17248e-035
-6.89747e-029 1.59069e-032 7.46596e-032
1.04042e-029 6.80733e-030 1.20082e-029
0.24185 -0.000498341 2.31473e-005
5.28578e-017 6.09056e-020 1.9244e-020
0.264364 0.000232702 0.000611254
-2.48728e-017 -9.74528e-020 3.67742e-020
0.241332 -9.04588e-005 -0.000289041
-2.08602e-029 2.55965e-032 -2.32355e-032
-4.04967e-029 2.44584e-032 -7.96379e-032
0.415436 -0.000265781 0.000156121
-6.99705e-029 5.87266e-032 -1.52118e-031
6.88438e-017 -1.10217e-019 3.76699e-019
0.316818 -0.000519512 0.000718374
-5.43535e-017 1.80605e-019 -1.45825e-019
0.324665 -0.000307826 0.00173316
2.57696e-017 6.15946e-020 1.7588e-019
0.308281 -0.00100024 0.000479478
0.380774 0.00145767 -0.00037471
-7.74631e-029 -2.4243e-032 1.00224e-031
0.438742 0.000438085 -0.000114782
0.281498 0.000297244 -0.000331866
0.384146 0.00187379 0.000536108
0.307351 -0.00101177 0.000799333
0.444063 0.000670102 -0.000821724
0.312475 0.000946686 -0.000397799
1.07692e-029 1.52931e-031 -3.51854e-033
-0.300244 -0.00676151 0.00204883
1.59424e-016 2.93774e-018 -6.21549e-019
-0.39924 -0.00593735 0.00228029
-0.642627 -0.0144079 -1.49357e-005
6.87278e-031 -2.61053e-029 1.5798e-030
1.32294e-031 -4.87142e-029 2.89666e-030
-0.00480382 0.275558 -0.0179724
-0.00015782 0.266845 -0.0184765
-0.00634129 0.182165 -0.0121058
5.85369e-019 -2.83985e-017 2.37167e-018
-0.0039324 0.210735 -0.0146301
0.000648257 0.563044 0.00511803
0.0131728 0.345293 0.00946726
0.00423729 0.518722 -4.44329e-005
0.000324423 0.459376 0.00734888
0.00970022 0.49334 0.00887443
0.00380193 0.543638 0.00178485
0.000618245 0.516316 0.00771725
0.00848839 0.462729 0.00439219
0.00586568 0.434781 0.00854763
0.00232678 0.512733 0.00437048
0.00824147 0.367652 0.0146433
0.00205856 0.480694 0.0146755
0.00117586 0.39927 0.011803
6.97116e-029 1.2681e-030 2.59502e-032
1.17465e-028 2.49637e-030 -3.24098e-033
2.09547e-029 2.24834e-031 3.95957e-033
-0.532709 -0.00729206 -0.000603609
-0.504043 -0.00893099 -0.00178474
-0.503648 -0.00866037 -0.0010046
-1.14941e-016 -2.47962e-020 -3.37025e-019
-1.36344e-016 -2.54184e-018 -3.82874e-019
-1.29979e-016 -2.90576e-018 -6.45138e-019
4.4421e-031 1.17779e-030 3.22336e-033
-0.114435 -0.282224 0.000430765
2.62304e-030 9.71883e-030 -1.06921e-033
9.36119e-031 3.46255e-030 2.88466e-032