# vtk DataFile Version 2.0 
output.vtk, Created by Freefem++, via gregorio
ASCII
DATASET UNSTRUCTURED_GRID
POINTS 7451 double
-3.79965 2.23652 0.040848
-4.13429 2.05574 0.276253
-4.09122 2.24524 0.070091
-4.01836 2.27766 0.330071
-3.96697 2.14613 0.158551
-3.94543 2.24088 0.0554695
-3.90901 2.25709 0.185459
-4.11275 2.15049 0.173172
-4.07633 2.1667 0.303162
-4.05479 2.26145 0.200081
-4.81817 0.732763 -0.840268
-4.76136 0.37264 -0.736193
-5.12328 0.495929 -0.550642
-4.73872 0.559667 -0.434419
-4.78977 0.552702 -0.788231
-4.97072 0.614346 -0.695455
-4.77845 0.646215 -0.637344
-4.94232 0.434285 -0.643417
-4.75004 0.466153 -0.585306
-4.931 0.527798 -0.49253
-7.58244 -0.891248 -0.453516
-8 -0.559587 0.124298
-7.26059 -0.264226 0.250847
-7.58828 -0.999993 0.00381
-7.79122 -0.725418 -0.164609
-7.42152 -0.577737 -0.101334
-7.58536 -0.94562 -0.224853
-7.6303 -0.411906 0.187573
-7.79414 -0.77979 0.064054
-7.42444 -0.632109 0.127328
-5.46564 0.048234 0.998836
-5.51396 -0.351144 0.936321
-5.02851 -0.125769 0.598961
-5.56665 -0.148801 0.504295
-5.4898 -0.151455 0.967578
-5.24708 -0.0387675 0.798898
-5.51614 -0.0502835 0.751565
-5.27124 -0.238457 0.767641
-5.5403 -0.249972 0.720308
-5.29758 -0.137285 0.551628
-4.20269 -2.80441 0.102764
-3.63085 -2.57461 -0.287529
-4.13183 -2.29387 0.255347
-4.14432 -2.47254 -0.273935
-3.91677 -2.68951 -0.0923825
-4.16726 -2.54914 0.179055
-4.1735 -2.63848 -0.0855855
-3.88134 -2.43424 -0.016091
-3.88759 -2.52358 -0.280732
-4.13807 -2.38321 -0.009294
-6.25062 -0.085247 0.575431
-6.51584 -0.423084 -0.15939
-6.46019 0.447486 0.293263
-6.75561 -0.174737 0.413139
-6.38323 -0.254165 0.20802
-6.35541 0.181119 0.434347
-6.88822 -0.343655 0.0457285
-6.86039 0.09163 0.272055
-6.48801 0.012201 0.0669365
-4.88162 0.371746 0.655425
-4.51246 -0.112716 0.623981
-4.65723 0.09269 0.995695
-4.69704 0.129515 0.639703
-4.95507 0.122989 0.627193
-4.76942 0.232218 0.82556
-4.77049 -0.119243 0.611471
-4.58484 -0.010013 0.809838
-4.84287 -0.0165395 0.797328
-3.75099 1.20677 0.090288
-3.64118 0.745776 0.266863
-4.09568 0.790235 0.315934
-3.78936 1.07086 0.69071
-3.69609 0.976272 0.178575
-3.92333 0.998502 0.203111
-3.77017 1.13882 0.390499
-3.86843 0.768006 0.291399
-3.71527 0.908319 0.478787
-3.94252 0.930549 0.503322
-2.18572 0.40145 0.915881
-1.75478 0.245881 0.526965
-1.94554 -0.013967 0.999902
-1.76886 0.356252 0.93439
-1.97025 0.323665 0.721423
-2.06563 0.193741 0.957891
-1.97729 0.378851 0.925135
-1.85016 0.115957 0.763433
-1.76182 0.301067 0.730678
-1.8572 0.171143 0.967146
-5.06116 0.824959 0.710182
-4.88551 0.773989 0.80113
-4.92155 0.772883 0.437198
-5.01596 0.602336 0.857802
-4.97333 0.799474 0.755656
-4.99135 0.798921 0.57369
-5.03856 0.713647 0.783992
-4.90353 0.773436 0.619164
-4.95074 0.688163 0.829466
-4.96876 0.687609 0.6475
-2.34262 2.51752 0.051733
-2.4672 2.85727 -0.311185
-2.29554 2.81673 0.086134
-2.65762 2.74748 0.16058
-2.40491 2.6874 -0.129726
-2.31908 2.66712 0.0689335
-2.50012 2.6325 0.106157
-2.38137 2.837 -0.112526
-2.56241 2.80238 -0.0753025
-2.47658 2.7821 0.123357
-3.50303 -3.76846 -0.636668
-3.49422 -3.29308 -1.15018
-3.31427 -3.71149 -1.25136
-2.90724 -3.34218 -0.858121
-3.49863 -3.53077 -0.893424
-3.40865 -3.73997 -0.944014
-3.20514 -3.55532 -0.747394
-3.40425 -3.50228 -1.20077
-3.20073 -3.31763 -1.00415
-3.11076 -3.52683 -1.05474
-4.0054 2.49156 -0.125899
-3.5956 2.50054 -0.194198
-3.83412 2.54803 0.0159
-3.8005 2.49605 -0.160049
-3.90253 2.36404 -0.0425255
-3.91976 2.5198 -0.0549995
-3.69763 2.36853 -0.076675
-3.71486 2.52428 -0.089149
-3.81689 2.39228 0.028374
-3.73452 -3.68531 -1.05781
-3.52439 -3.6984 -1.15459
-3.61437 -3.4892 -1.104
-3.61877 -3.72688 -0.84724
-6.37864 0.944563 0.328331
-6.25891 0.813305 0.581838
-6.65332 0.772267 0.635298
-6.31878 0.878934 0.455085
-6.41941 0.696025 0.310797
-6.51598 0.858415 0.481815
-6.35955 0.630395 0.43755
-6.45612 0.792786 0.608568
-6.55675 0.609877 0.46428
1.62066 -0.841518 -0.540229
1.89324 0.238579 -0.195511
2.01627 -0.690819 -0.723027
2.25185 -0.211859 0.261412
1.75695 -0.30147 -0.36787
1.81846 -0.766169 -0.631628
1.93625 -0.526689 -0.139408
1.95475 -0.22612 -0.459269
2.07254 0.01336 0.0329505
2.13406 -0.451339 -0.230807
-2.56949 2.06853 0.305158
-2.91403 1.60744 0.564909
-3.02709 2.08175 0.021586
-2.87501 2.07662 0.630995
-2.74176 1.83799 0.435033
-2.79829 2.07514 0.163372
-2.72225 2.07258 0.468077
-2.97056 1.8446 0.293247
-2.89452 1.84203 0.597952
-2.95105 2.07919 0.32629
-5.39985 0.358755 0.933432
-5.34934 0.453264 0.543553
-5.56264 0.558471 0.829524
-5.70805 0.297641 0.954678
-5.37459 0.40601 0.738492
-5.48124 0.458613 0.881478
-5.55395 0.328198 0.944055
-5.45599 0.505868 0.686538
-5.52869 0.375452 0.749116
-5.63535 0.428056 0.892101
-4.17913 0.323834 -0.696515
-4.36183 0.516245 -0.417662
-4.60784 0.019305 -0.528365
-4.46586 0.364911 -0.72315
-4.27048 0.42004 -0.557088
-4.39349 0.17157 -0.61244
-4.3225 0.344372 -0.709832
-4.48483 0.267775 -0.473013
-4.41384 0.440578 -0.570406
-4.53685 0.192108 -0.625757
-5.9377 0.438799 -0.558905
-5.87927 0.529091 -0.848565
-6.25926 0.555743 -0.831354
-6.07929 0.245277 -0.969453
-5.90849 0.483945 -0.703735
-6.09848 0.497271 -0.695129
-6.00849 0.342038 -0.764179
-6.06927 0.542417 -0.839959
-5.97928 0.387184 -0.909009
-6.16928 0.40051 -0.900404
-3.64743 2.72944 0.180305
-3.74077 2.63873 0.0981025
-3.72354 2.48298 0.110576
-3.62151 2.61499 -0.0069465
-3.98168 0.388062 0.141859
-3.76543 0.320245 0.603448
-3.81143 0.566919 0.204361
-3.70331 0.533011 0.435156
-4.03868 0.589149 0.228897
-3.87356 0.354154 0.372653
-3.93055 0.55524 0.459691
-6.17342 0.027823 -0.593282
-6.59748 0.255766 -0.966739
-6.35964 0.547779 -0.240473
-6.21634 0.291783 -0.712318
-6.42837 0.405755 -0.899047
-6.30945 0.551761 -0.535914
-6.38545 0.141794 -0.78001
-6.26653 0.287801 -0.416878
-6.47856 0.401772 -0.603606
-5.98474 0.742767 -0.66955
-5.96122 0.590783 -0.614227
-6.122 0.649255 -0.750452
-5.93201 0.635929 -0.759057
-5.86659 0.345457 -0.129882
-5.96054 -0.099592 -0.035866
-6.02 0.18664 -0.361582
-6.11312 0.446618 -0.185177
-5.91357 0.122933 -0.082874
-6.06698 -0.0358845 -0.314574
-6.16009 0.224094 -0.13817
-1.10421 0.363269 -0.931684
-0.773878 0.737644 -0.67519
-0.520452 0.269543 -0.962988
-0.384634 0.008888 -0.353445
-0.939043 0.550457 -0.803437
-0.812329 0.316406 -0.947336
-0.74442 0.186079 -0.642564
-0.647165 0.503594 -0.819089
-0.579256 0.373266 -0.514317
-0.452543 0.139215 -0.658216
-2.85287 -3.00249 -1.21636
-3.23054 -2.92385 -1.196
-3.06719 -3.3306 -1.25351
-2.88006 -3.17233 -1.03724
-3.06889 -3.13301 -1.02706
-2.98722 -3.33639 -1.05581
-3.0417 -2.96317 -1.20618
-2.96003 -3.16654 -1.23493
-3.14886 -3.12722 -1.22475
-3.38618 -2.05134 -0.098565
-2.37808 -2.56123 -0.134541
-2.49252 -2.47812 0.422472
-2.41131 -1.89586 0.044632
-2.88213 -2.30628 -0.116553
-2.93935 -2.26473 0.161954
-2.89875 -1.9736 -0.0269665
-2.4353 -2.51967 0.143966
-2.39469 -2.22855 -0.0449545
-2.45192 -2.18699 0.233552
-1.85713 -0.413967 0.42138
-1.65927 -0.390905 0.920431
-1.2503 -0.077569 0.384148
-1.80595 -0.084043 0.474172
-1.70702 -0.072512 0.723698
-1.50254 0.084156 0.455557
-1.7582 -0.402436 0.670905
-1.55371 -0.245768 0.402764
-1.45478 -0.234237 0.652289
-2.09043 2.55218 0.167395
-2.0659 2.66009 -0.048555
-2.19298 2.68445 0.126765
-2.18072 2.73841 0.0187895
-2.07816 2.60614 0.05942
-2.21652 2.53485 0.109564
-2.20426 2.58881 0.001589
-4.01665 2.44382 0.136481
-3.97233 2.67361 0.084512
-3.92539 2.49592 0.0761905
-3.99449 2.55872 0.110496
-4.01103 2.46769 0.005291
-3.90323 2.61082 0.050206
-3.98887 2.58259 -0.0206935
-3.92754 1.80484 -0.220103
-4.28096 1.83407 -0.225431
-4.13592 1.88983 -0.461486
-4.146 2.03152 -0.278406
-4.10425 1.81945 -0.222767
-4.03173 1.84734 -0.340795
-4.03677 1.91818 -0.249254
-4.20844 1.86195 -0.343458
-4.21348 1.9328 -0.251918
-4.14096 1.96068 -0.369946
-4.04038 -5 0.949212
-3.62468 -5 1.26221
-3.84559 -4.54287 1.07336
-3.71487 -5 0.728948
-3.83253 -5 1.10571
-3.94299 -4.77144 1.01129
-3.87763 -5 0.83908
-3.73513 -4.77144 1.16779
-3.66977 -5 0.99558
-3.78023 -4.77144 0.901156
-1.37334 0.812082 -0.583544
-0.975724 0.961208 -0.275823
-1.19336 -0.166381 -0.273753
-1.17453 0.886645 -0.429683
-1.07361 0.774863 -0.629367
-1.28335 0.32285 -0.428648
-0.874801 0.849426 -0.475506
-1.08454 0.397413 -0.274788
-0.983618 0.285631 -0.474471
-3.83515 -1.82017 -0.741539
-3.34976 -1.58414 -0.592596
-3.50394 -2.07825 -1.02313
-3.59245 -1.70215 -0.667067
-3.66955 -1.94921 -0.882335
-3.61067 -1.93575 -0.420052
-3.42685 -1.83119 -0.807863
-3.36797 -1.81774 -0.345581
-3.44506 -2.06479 -0.560848
-2.72946 0.769161 0.094533
-2.75119 0.681139 -0.326037
-2.98528 1.02631 -0.281501
-3.08113 0.734324 -0.34324
-2.74032 0.72515 -0.115752
-2.85737 0.897737 -0.093484
-2.90529 0.751742 -0.124353
-2.86823 0.853726 -0.303769
-2.91616 0.707731 -0.334639
-3.03321 0.880319 -0.31237
-2.94023 -2.47675 -0.674772
-3.14499 -2.03044 -0.633684
-3.22209 -2.2775 -0.848951
-3.16321 -2.26404 -0.386669
-3.03914 -4.25341 0.579285
-2.64287 -3.80807 0.20828
-2.47531 -4.18593 0.714333
-2.97264 -3.41482 0.618231
-2.84101 -4.03074 0.393783
-2.75723 -4.21967 0.646809
-3.00589 -3.83412 0.598758
-2.55909 -3.997 0.461307
-2.80776 -3.61144 0.413255
-2.72397 -3.80037 0.666282
-2.39684 -0.595487 -0.803365
-1.98884 -0.54749 -0.836812
-2.24172 -0.466498 -0.098067
-2.21295 -0.01831 -0.514797
-2.19284 -0.571489 -0.820088
-2.31928 -0.530992 -0.450716
-2.3049 -0.306899 -0.659081
-2.11528 -0.506994 -0.46744
-2.1009 -0.2829 -0.675804
-2.22734 -0.242404 -0.306432
-3.36239 -4.55484 -1.31864
-3.11171 -4.25429 -0.873787
-2.86199 -4.55394 -1.36046
-2.79118 -5 -0.96439
-3.23705 -4.40456 -1.09621
-3.11219 -4.55439 -1.33955
-3.07678 -4.77742 -1.14151
-2.98685 -4.40411 -1.11712
-2.95144 -4.62714 -0.919088
-2.82658 -4.77697 -1.16243
-3.88203 2.65205 -0.416886
-3.48121 2.84727 -0.340672
-3.82273 3 -0.474998
-3.72541 2.76868 -0.627028
-3.68162 2.74966 -0.378779
-3.85238 2.82603 -0.445942
-3.80372 2.71037 -0.521957
-3.65197 2.92364 -0.407835
-3.60331 2.80798 -0.48385
-3.77407 2.88434 -0.551013
[...]
POINT_DATA 7451
 
FIELD FieldData 2
velocity 3 7451 double
-1.8011 -5.26421 0.0648973
2.16843e-029 5.08777e-029 -2.36474e-030
7.03061e-030 1.95526e-029 -4.022e-031
1.87198e-029 5.11546e-029 -2.18752e-030
-1.25434 -3.11245 0.117507
-1.14838 -3.187 0.0667244
-1.23538 -3.57913 0.136287
-2.97022e-017 -7.25137e-017 3.00117e-018
8.73413e-017 2.15399e-016 -1.38403e-017
4.36427e-030 -1.41869e-029 -1.59063e-030
3.14949e-029 1.79726e-029 7.63626e-031
-1.33418 -0.740319 -0.0414834
-2.02858 -0.696542 -0.0212034
-2.38837 -1.56748 -0.0646592
-0.813658 -0.462437 -0.0135117
-1.08304 -0.471728 -0.00856098
-1.49319 -0.933351 -0.0475352
-1.74664 -0.759357 -0.0237483
-1.94939 -1.21826 -0.0501641
-2.22886 -1.08796 -0.042437
2.89338e-028 -4.7824e-031 3.09926e-031
-2.55898 0.0196836 -0.00197689
-3.14917 -0.000997508 0.000659959
1.70268e-028 -5.45007e-031 2.22304e-031
-1.72213 0.00466479 -0.00427632
-2.55419 -0.00376233 -0.0102897
-4.29839e-016 2.68336e-019 -1.70988e-018
-2.96199 0.00201017 -0.00043993
-1.52332 0.0181609 -0.00560786
-2.30035 0.00531116 -0.00242784
1.00719e-028 1.37642e-029 2.43198e-031
6.71829e-029 5.76808e-030 1.39847e-030
-2.04714 -0.487344 -0.0808969
-2.6215 -0.214142 -0.0218267
-4.9094e-016 -3.05116e-017 -7.53863e-018
-1.33878 -0.218807 -0.018408
-1.66637 -0.13301 -0.0182489
-1.28716 -0.142442 -0.0383161
-1.60742 -0.0930927 -0.0241826
-2.36893 -0.329431 -0.0433642
1.44533e-029 1.96526e-028 -1.84416e-030
-0.0957944 -1.56674 -0.0575644
1.46544e-029 2.32025e-028 -1.87929e-030
3.4217e-030 4.13435e-029 1.33149e-030
-0.0959868 -1.07394 -0.0106772
1.85424e-016 2.00557e-015 -4.08278e-017
1.78053e-017 1.71837e-016 2.41384e-018
-0.0989021 -1.18219 -0.0122194
-0.0970922 -1.11056 -0.0377871
2.38153e-016 2.42721e-015 3.41305e-017
-2.50146 -0.0487356 -0.0110037
-2.91381 -0.0269691 -0.00170439
-2.69284 -0.0384856 -0.00703954
-2.98037 -0.0136938 -0.00670677
-3.26794 -0.0495234 -0.0109487
-2.91003 -0.0510943 -0.010819
-3.21004 -0.00858197 -0.00540712
-3.35939 -0.0130697 -0.006172
-3.5803 -0.0475127 -0.00621802
-1.81727 -0.981122 0.0737967
-1.36652 -1.01392 -0.198749
5.4426e-029 3.71204e-029 1.04466e-030
-1.79691 -1.10955 -0.0429662
-2.05759 -0.770148 -0.0111422
-0.991494 -0.71894 0.0412868
-1.76561 -0.711488 -0.130426
-0.973481 -0.800882 -0.079721
-1.19224 -0.522398 -0.0498855
-2.90944 -6.10291 -0.0121176
-1.38683 -5.50702 -0.116352
-2.4939 -4.01743 0.090277
-1.7957 -4.69969 0.0651796
-2.25716 -5.90238 -0.100389
-2.74137 -5.08679 0.0573965
-2.6516 -5.70742 0.0439958
-2.07499 -4.81386 -0.0135079
-1.92165 -5.46578 -0.120343
-2.21781 -4.54725 0.11889
-6.2483e-029 2.0063e-029 -4.78571e-030
1.01487 -0.113169 0.0252326
-6.00871e-029 1.71581e-029 4.90325e-031
-1.26788e-029 9.82294e-031 -4.29002e-031
0.614765 -0.106265 0.0341419
2.36332e-016 -5.41206e-017 1.35229e-017
1.04053e-017 -1.45303e-018 4.85745e-019
0.619908 -0.0889714 0.023383
0.580126 -0.0463182 0.0105668
-2.01602e-016 2.29095e-017 -6.20973e-018
9.29105e-017 5.10162e-017 -9.2634e-018
9.84963e-030 6.47985e-030 -8.77907e-031
-1.88221 -1.06582 0.120765
1.0092e-029 5.85761e-030 -7.49802e-031
4.73678e-017 3.00465e-017 -5.53555e-018
-1.06337 -0.591964 0.0892967
3.53675e-016 3.15973e-016 -5.3198e-017
-1.08666 -0.707795 0.112365
5.57951e-016 3.95079e-016 -5.66139e-017
-1.13115 -0.652452 0.0908772
-0.520445 -3.70989 -0.0611614
-0.32637 -4.83801 -0.124752
-0.196734 -3.68728 -0.0147585
-0.723991 -6.67395 -0.050697
-0.441333 -4.49539 -0.0575276
-0.359748 -3.70685 -0.0414498
-0.661998 -5.44074 -0.0636453
-0.284522 -4.53902 -0.0655208
-0.555453 -6.12951 -0.0674312
-0.469748 -5.51661 -0.0275501
-0.0545936 -1.45852 -0.0781589
3.63227e-030 1.40233e-028 9.92522e-030
1.97262e-030 1.25097e-028 9.22301e-030
0.0133008 -1.62537 -0.115231
-0.0390318 -1.13138 -0.0864583
-0.0347552 -1.17106 -0.0888517
-0.0261747 -1.68373 -0.107436
-7.20689e-031 -7.10597e-029 -2.74259e-030
-0.0171445 -1.17988 -0.0913204
-0.0107311 -1.08552 -0.0870811
1.57569e-029 6.10594e-029 -2.76108e-031
-1.41759 -6.39983 -0.010715
-0.799458 -3.79453 0.0049897
-0.998808 -4.19126 0.0251912
-1.00428 -3.30268 0.0109116
-0.489436 -2.06598 -0.00385642
-1.67512 -5.96164 0.0122287
-1.2223 -5.49859 0.00792115
-1.28574 -4.55908 0.0340336
1.53436e-030 3.54389e-029 2.51054e-030
2.57978e-017 7.1383e-016 6.10092e-017
-2.44332e-017 -6.09497e-016 -5.25127e-017
-0.0462569 -1.04451 -0.0772591
3.2051e-029 5.56181e-031 6.02296e-032
4.23379e-029 6.90462e-031 9.85852e-032
5.52763e-029 6.56238e-031 2.6081e-031
2.30965e-016 5.142e-018 6.4844e-019
-1.65055 -0.0415544 -0.00393384
-2.41089e-029 -5.22014e-030 -2.51014e-030
-1.6215 -0.0205589 -0.00499218
-6.02285e-017 2.72374e-018 1.00044e-018
-1.64515 -0.0181878 -0.00569147
-3.9607e-028 1.17459e-030 -8.43683e-032
1.2627 -0.00138936 0.00113862
-1.48226e-028 3.68183e-031 -3.15946e-031
1.23128 -0.0042237 0.00278371
1.12302 -0.00620904 0.00122012
-1.86636e-016 7.59666e-019 -6.2772e-019
1.02909 -0.00298963 0.00246348
1.0762 -0.00102828 0.00319792
1.38017 -0.00409727 0.00349997
1.08579 -0.00522461 0.00397085
-1.2055 -4.64228 -0.227087
-1.67655 -4.88622 -0.515258
-2.18856 -7.29654 -0.0885825
-1.34491 -5.64341 -0.264922
-1.56406 -5.08667 -0.379993
-1.83484 -6.53555 -0.198658
-1.36963 -5.40998 -0.297884
-2.28795 -6.91667 -0.296603
-1.56842 -5.31973 -0.391689
-2.00816 -7.04496 -0.233942
9.92905e-030 1.61592e-030 -3.20884e-031
-2.11125 -0.478419 0.054159
2.12844e-029 1.94233e-030 -4.90284e-031
9.15339e-029 7.16458e-030 -6.22811e-031
-1.22739 -0.197734 0.0464959
-3.27629e-016 -3.05826e-017 1.41846e-017
4.5266e-016 2.48635e-017 -1.57105e-017
-1.18936 -0.16853 0.0395128
-1.2327 -0.118619 0.0293282
-7.40822e-017 -2.38842e-018 2.93157e-018
-1.00503 -1.94425 -0.082698
-2.19576 -2.53044 -0.0843002
-1.82363 -1.1442 0.0129783
-1.26186 -1.24509 -0.0687688
-1.64314 -2.37028 -0.0698068
-1.43557 -1.60401 -0.0288129
-1.16901 -1.57668 -0.0762707
-2.00384 -1.80329 -0.0415907
-1.80775 -1.99257 -0.0783047
-1.62687 -1.30943 -0.0415631
-1.95058 -0.0552495 0.00101391
1.06413e-029 1.50489e-031 -1.12599e-032
9.15408e-029 1.33219e-030 -4.45039e-031
4.2866e-029 7.07406e-031 -7.1169e-032
-1.09414 -0.0132795 0.00366563
-1.08069 -0.0232399 0.00988393
-1.17731 -0.0166249 0.00645334
-7.9906e-016 -5.92506e-018 8.68812e-018
-3.83678e-016 -6.74804e-019 4.26859e-018
-3.53068e-029 -3.35885e-030 6.41643e-030
-0.868697 -5.816 0.0543112
-0.866016 -4.99536 0.0298874
-1.29546 -5.5794 0.0446328
-1.19646 -6.41605 0.0110941
-1.55994 -3.54195 -0.0811801
-0.3597 -3.62884 0.147579
-1.46326 -4.48696 -0.0838514
-0.852341 -4.57687 -0.0254343
-2.09436 -3.89795 -0.0147305
-1.05418 -3.63932 -0.0328744
-1.54461 -3.97941 0.000126387
-2.4536 -0.0438266 0.00157682
-1.19042e-016 2.5874e-019 2.73341e-019
-2.4654 -0.0319662 0.00655935
-1.60341 -0.028936 0.0100331
-8.59315e-029 -4.53805e-030 7.41027e-030
-1.61463 -0.0204583 0.0153176
-1.4629 -0.0275001 0.00634685
-2.80298 -0.0481813 0.0074888
-1.84901 -0.0116188 0.0105099
1.71173e-029 3.7398e-031 2.48478e-032
-1.10874 -0.0246269 0.00551999
-2.57576e-016 -4.29429e-018 6.61559e-018
-3.41638e-016 -2.86139e-018 2.41526e-018
-3.24216 -0.179768 -0.00189483
-3.49067 -0.141687 -0.0100703
-3.09638 -0.101587 -0.00425939
-2.90249 -0.0753421 0.00306529
-3.52493 -0.175311 -0.00439644
-3.2817 -0.0992025 -0.00616557
-3.39594 -0.0914371 0.000254017
5.80727e-017 3.39184e-019 -1.58829e-019
-1.32743e-028 -8.98089e-032 1.1625e-031
-5.04174e-029 -4.39176e-031 1.52875e-031
1.24711 0.00249152 -0.000663314
-8.77821e-017 -1.59597e-019 1.29301e-019
3.78027e-029 -4.48662e-030 1.45068e-029
0.818621 0.00409621 -0.00532818
-9.16015e-017 -7.59269e-019 4.29473e-019
0.904992 -0.000218505 -0.000969625
0.829286 0.0106709 -0.00456966
-4.99099e-031 5.77089e-029 5.04194e-030
1.69151e-030 1.51046e-028 1.16223e-029
4.06356e-032 2.46307e-029 2.02902e-030
0.00779367 -1.0864 -0.0953644
-0.0105416 -1.12759 -0.0960161
-0.000278855 -1.06244 -0.0857356
4.1737e-018 7.35975e-016 5.94035e-017
1.91941e-019 -2.96686e-016 -2.7419e-017
7.75862e-018 6.11667e-016 -2.75637e-017
-0.0283371 -1.83272 -0.0333511
0.0967809 -1.58235 -0.0313584
0.0937269 -1.61748 0.0635382
0.125269 -1.64568 0.00199328
0.0513546 -1.8658 -0.0307785
0.0437777 -1.8897 0.0183776
0.0782892 -1.93529 -0.01534
0.0953377 -1.67048 0.012262
0.105141 -1.63598 -0.0189236
0.109503 -1.71415 0.0390714
0.841813 -0.256523 -0.0757205
-7.37506e-029 5.36945e-030 1.41101e-030
1.20462 -0.044496 -0.00670145
1.11156 -0.207724 -0.00431312
0.700528 -0.0501651 0.00226851
1.14496 -0.0798384 -0.00286198
0.571103 -0.0354381 -0.0393247
1.09665 -0.0916973 -0.0167413
0.777575 -0.0177106 -0.00955984
-3.51379e-017 -4.54018e-016 -1.1429e-018
1.81214e-030 2.09106e-029 3.1009e-031
-0.128307 -1.94418 -0.00626319
-0.13647 -1.95723 -0.011448
-7.39007e-017 -9.13835e-016 -4.58831e-018
-0.276722 -2.10703 -0.0333144
-0.254048 -2.07644 -0.0549741
-1.25485e-016 -5.02522e-016 5.54728e-018
4.56765e-030 2.87968e-029 -1.73348e-031
-0.522206 -2.21674 0.0175677
2.15561e-016 1.12444e-015 1.44544e-018
5.35338e-030 -1.89858e-029 8.63035e-032
-0.362922 -2.21252 -0.0183277
4.02015e-016 2.11497e-015 2.19193e-017
-2.38564 -4.66636 -0.050853
1.8603e-029 2.97686e-029 1.6044e-031
1.0188e-029 1.92407e-029 4.91062e-031
7.78906e-030 1.50932e-029 1.96564e-031
-1.56081 -2.6402 -0.0310892
-1.54364 -2.85118 -0.0787706
-1.51799 -2.87933 -0.0504
-7.92435e-016 -1.30918e-015 -3.50005e-017
-5.02526e-015 -7.53668e-015 -1.49381e-016
-3.31967e-015 -6.03487e-015 -1.84287e-016
4.54494e-031 1.21987e-029 -5.1537e-031
7.04684e-031 3.4621e-029 -1.84508e-030
2.22121e-030 5.82255e-029 -3.46545e-030
-0.0344107 -0.938756 0.037528
1.55255e-017 5.82079e-016 -2.89077e-017
2.40721e-018 6.55899e-017 -3.56869e-018
-0.026056 -0.741338 0.0310291
-1.31017e-017 -1.24574e-016 7.3205e-018
-0.0236875 -0.947951 0.0483191
-0.0345356 -0.910197 0.052055
-1.58307e-028 5.18167e-030 -1.50163e-030
-1.57877e-028 3.75606e-031 9.25408e-032
1.26101 -0.0204817 0.00190468
7.04967e-017 -2.26142e-019 3.64354e-019
-7.80214e-017 8.02996e-019 -4.04015e-019
1.06587 -0.0188063 0.00825121
-1.76822e-016 -8.38817e-019 7.38313e-020
1.13731 0.00352057 0.00082926
1.02291 -0.00644305 0.000252403
-2.1407e-019 -5.72816e-018 -2.96522e-019
0.037609 -2.07123 -0.137783
6.58482e-030 3.04968e-028 1.77036e-029
-0.00815516 -1.3241 -0.0865166
3.50743e-017 6.62174e-016 6.07117e-017
-0.0581713 -1.82519 -0.0791018
-0.0177806 -1.29357 -0.096067
0.000538888 -2.18929 -0.0896845
-0.0524313 -1.92246 -0.104496
2.13678 -4.21597 0.211948
1.8358 -2.82958 -0.431088
-0.569717 -6.31413 0.300534
0.789051 -5.41142 -0.196592
2.04313 -3.96146 -0.120007
0.997007 -5.95869 -0.108863
1.62909 -5.44331 -0.14179
1.03214 -4.4691 -0.129285
1.58064 -4.41738 -0.342103
0.288241 -5.96663 0.0525017
0.0206133 -2.02541 -0.126395
-0.0013025 -2.15702 -0.123211
-0.0335586 -1.62906 -0.11372
-0.0109417 -2.0672 -0.081298
-0.000135218 -1.06794 0.0554182
0.044391 -1.43449 0.0182991
0.052401 -1.16852 0.0769448
0.00154068 -1.27391 0.0786185
0.0251322 -1.37615 0.0320969
0.0273382 -1.19604 0.0701805
-0.00131946 -1.17735 0.0700427
0.0555724 -1.37569 0.0399566
0.028558 -1.4744 0.0371759
0.0387888 -1.27229 0.0816542
4.04693e-017 -3.11427e-016 -6.30098e-018
1.59081e-016 -1.62758e-017 4.61749e-018
0.827447 -0.982895 0.0113167
1.1363 -0.582896 -0.0206102
-8.0032e-017 2.34519e-017 1.04875e-029
0.506691 -0.949146 0.0250326
0.602066 -0.505475 0.0338266
0.541177 -0.462855 0.0589401
0.60097 -0.282727 0.0389535
1.11184 -0.838946 0.00124711
-5.00812e-018 -2.71705e-016 -2.04248e-017
-0.00961525 -1.51225 -0.0858577
-1.29788e-030 1.14616e-028 6.23376e-030
0.010261 -1.29943 -0.0423185
-0.0136811 -0.989888 -0.0674569
-8.21502e-018 -4.82788e-016 -5.46511e-017
-0.00305832 -0.939049 -0.0463207
0.00257146 -1.0094 -0.0681213
0.00489704 -1.42819 -0.0611522
0.00790949 -0.84253 -0.0415231
1.12232e-029 6.83493e-029 6.07953e-032
-0.696052 -6.43968 -0.043207
1.0382e-029 2.25259e-028 5.645e-032
1.82145e-029 1.07399e-028 6.44125e-031
-0.524436 -4.103 -0.00663539
-5.80118e-016 -5.70387e-015 -5.84255e-018
5.12084e-030 -5.27627e-029 8.53736e-030
-0.332607 -4.12163 -0.0200946
-0.504552 -4.08157 -0.0590048
-4.85527e-016 -4.94662e-015 -5.7072e-017
1.30405 -0.0013946 0.000375564
-5.71113e-029 4.79403e-032 -2.10988e-032
-5.92411e-029 9.73856e-032 5.58926e-032
-1.00192e-028 1.5918e-031 5.33824e-032
0.970454 0.000860428 5.99868e-005
0.972832 -0.000966529 -0.00135409
0.966396 6.48768e-005 -0.000745661
4.06945e-029 -2.62546e-019 6.58088e-019
3.75557e-029 -2.86007e-019 1.53959e-019
7.46547e-017 -1.18518e-020 -8.30152e-032
0.299103 -1.3315 -0.0235293
0.567151 -2.19606 -0.0935225
0.451708 -1.9507 0.140405
0.138892 -1.84049 -0.0439218
0.524472 -2.02458 -0.0148015
0.426158 -1.68636 0.0665141
0.176674 -1.8131 -0.00692837
0.569337 -2.3014 0.0150752
0.317114 -2.02648 -0.0651987
0.312621 -2.09588 0.0188799
-2.08956e-028 -1.51591e-031 3.6135e-032
-1.26109e-028 -2.00844e-031 3.01225e-031
-1.54579e-028 -6.32267e-033 1.83766e-031
1.24334 0.000813615 -0.000661932
5.70258e-017 -2.38251e-021 -2.50643e-019
5.61985e-017 -1.623e-022 -5.42097e-021
1.03347 -0.000524265 -0.00364417
2.64784e-018 1.46111e-029 2.55826e-031
0.946895 0.00661894 -0.0026586
1.06309 0.000713283 -0.00396118
3.91307e-029 3.07878e-029 -3.87157e-030
-1.81004 -1.88905 0.277778
1.26986e-029 1.03579e-029 -1.81976e-030
-1.36073 -1.17447 0.188901
-1.1417 -0.732688 0.114705
2.98796e-015 2.39206e-015 -4.70264e-016
-1.83642 -1.41852 0.195375
-1.15265 -1.05766 0.203124
-1.07494 -0.747654 0.122557
-2.53228 -0.00499106 0.0146772
5.38078e-028 -2.25759e-031 -3.63736e-031
4.18332e-029 -9.63814e-032 -4.70874e-031
-2.52084 0.00865017 0.0039298
-1.72572 -0.00225838 0.00428841
-1.58388 -0.00874937 0.0175489
-2.76503 0.00540066 0.00505861
-7.19916e-029 6.25812e-031 1.35209e-030
-1.47105 0.00574176 -0.000869581
-1.5851 0.0138086 0.00699689
-1.04029e-028 1.72267e-031 1.30022e-031
-3.85799e-029 3.23925e-031 3.28609e-031
-5.88136e-029 1.85755e-030 1.16516e-030
-1.38588e-016 -1.71851e-018 1.26522e-018
-3.6656e-018 -2.35047e-020 7.29382e-021
0.854556 -0.00314323 -0.00274877
-5.07991e-017 -1.98524e-019 4.69361e-019
0.794042 -0.00613073 -0.0101538
0.846301 -0.0120606 -0.00278784
-2.20529e-028 3.45334e-032 4.20331e-031
1.0635 0.00133082 -0.0036383
0.904986 0.000238916 -0.00243082
0.966131 -0.00414139 -0.00301055
1.37967 -0.00959633 -0.00140195
1.41404 -0.00214015 0.00140663
1.26694 -0.00566275 -0.00136587
-4.91698e-029 1.77065e-030 2.30808e-032
-9.13711e-029 3.97132e-031 2.34113e-031
1.61311e-016 9.53723e-019 -1.7494e-018
1.37942e-016 5.14166e-019 -1.51389e-018
0.785868 -0.0103374 -0.00379886
1.26154e-017 9.97453e-020 -2.17549e-019
0.807555 -0.00821633 -0.0104292
-1.67268e-028 -8.3411e-031 2.17017e-031
1.2402 0.00721714 -0.000647283
-1.12845e-028 -5.88646e-031 1.26696e-032
0.811074 0.000275717 -0.000266563
-2.80229e-016 -2.77832e-018 9.19901e-019
1.01897 0.00398994 -0.000876841
0.847434 0.00575733 -0.000276509
1.30044 0.00607813 4.86516e-005
0.891388 0.0124576 -0.00466921
-4.63859e-029 3.03687e-031 -3.99324e-031
-1.34595e-028 8.74635e-032 -9.36161e-031
-1.56875e-028 9.87357e-031 -7.33988e-031
9.92937e-017 -1.58862e-018 2.6783e-018
-1.07078e-016 1.8985e-018 -2.45385e-018
0.828377 -0.0102145 0.0177414
-6.96439e-017 1.12668e-018 -1.22432e-018
0.858437 -0.00903524 0.0125439
0.860193 -0.0109205 0.00823824
-3.31764e-029 6.89852e-029 5.8585e-030
0.744155 -1.9659 -0.195926
-3.94568e-029 5.64176e-029 1.24736e-029
1.1701 -1.63854 -0.200224
0.54764 -0.983932 -0.0781486
1.03164e-016 1.63341e-016 -1.32859e-017
0.645832 -1.15353 -0.107255
0.536558 -0.723623 -0.154126
1.03594 -1.99984 -0.276588
0.789704 -0.94738 -0.19996
-1.38091e-029 6.82873e-030 2.71411e-030
-1.31595e-028 1.15391e-029 2.24827e-030
-1.02668e-029 4.00015e-029 2.34186e-030
0.496557 -0.0984943 -0.0879747
0.493897 -0.109693 -0.0528182
0.407335 -0.288052 -0.121037
7.10527e-030 7.78386e-030 -7.09598e-030
6.48446e-017 -8.65707e-017 -4.0091e-017
-1.05903e-016 5.9416e-017 2.99845e-017
-5.93791e-029 1.54454e-030 -1.98294e-031
-3.89663e-017 1.13055e-019 3.17994e-020
1.50582e-016 -1.26708e-019 -1.06205e-018
0.855 -0.0149238 -0.000399403
-1.60973 -5.85969 -0.0497091
2.77698e-029 7.66779e-029 8.34766e-031
-2.18602 -5.79976 0.0121942
6.19799e-029 1.94234e-028 3.5046e-031
-1.14434 -3.37215 -0.0400334
-2.02014 -5.95855 -0.0392715
-1.14337 -3.73403 -0.0177281
-1.44646 -3.67637 -0.0529032
2.0057e-016 5.24212e-016 9.71829e-018
-1.28317 -3.50101 -0.0202996
-2.1532 -6.50694 0.166541
-2.79476 -7.25736 -0.0526612
-1.60571 -4.43294 0.384371
-1.49183 -6.68597 0.284413
-2.57885 -7.16394 0.0680225
-1.92238 -6.14494 0.357999
-2.14583 -7.18077 0.105342
-1.47726 -5.35681 0.564316
-2.40946 -6.87948 0.20034
1.23971 0.00371802 0.000664187
-2.61241e-028 -8.71691e-031 7.87781e-031
-1.09745e-028 -5.8442e-031 4.52067e-032
1.2676 0.00576799 -0.000437048
0.855673 0.00562195 -0.00112771
0.817993 0.00711195 0.00192282
1.29016 0.00734908 -0.000652285
1.21e-028 -5.99253e-031 -1.1963e-029
1.10306 -0.00195936 -0.00339662
0.987618 0.000283637 0.000255468
-4.87879e-029 -3.1085e-031 4.78185e-032
-1.26687e-028 -2.39043e-031 -9.41539e-032
-2.32765e-028 -7.47534e-031 -1.44996e-031
3.72079e-029 6.578e-030 1.12967e-029
0.83261 0.00470995 -0.0012798
1.88552e-016 1.38302e-018 -1.42553e-019
0.903789 0.00396027 0.00245828
-8.63467e-017 -3.95223e-019 -6.90062e-020
0.825063 0.00412102 0.000166302
-7.11393e-029 6.91997e-032 2.68656e-033
-1.36723e-028 1.79608e-032 -2.33398e-031
1.30171 -0.000583986 -0.000400087
-2.34054e-028 4.05369e-031 -5.0081e-031
2.38309e-016 -1.07584e-019 7.52618e-019
1.0648 -0.000711018 0.000664419
-1.88562e-016 6.47092e-019 -3.71554e-019
1.08757 -0.000258831 0.00387756
8.81083e-017 1.68828e-019 5.46785e-019
1.03403 -0.00454999 0.0019887
1.23198 0.00485852 -0.00212535
-2.60258e-028 -5.7291e-031 2.45492e-031
1.4047 0.0038735 0.000736729
0.953865 0.00271495 -0.00276217
1.24772 0.00697315 0.00154424
1.03297 -0.000676677 0.00294255
1.41005 0.00679334 -0.000968678
1.05272 0.00517291 -0.000173495
4.05841e-029 4.42125e-031 -2.69449e-031
-1.12125 -0.018047 0.015266
2.76182e-016 4.26035e-018 -3.90465e-018
-1.48108 -0.0155274 0.0141539
-2.30723 -0.0391483 0.00974904
-4.1224e-030 1.52913e-028 -9.26697e-030
-1.51061e-031 2.65067e-028 -1.65279e-029
0.0334186 -1.80958 0.0989238
-0.00278933 -1.82635 0.100553
0.0408806 -1.37019 0.087732
-5.10733e-018 2.82354e-016 -1.72835e-017
0.0277965 -1.56235 0.0944836
-0.00188145 -1.31001 -0.0140228
-0.054589 -1.22277 -0.0381103
-0.00925423 -1.2137 0.00604622
-0.00135626 -1.31024 -0.0203598
-0.0317947 -1.34989 -0.0264932
-0.00919647 -1.25699 -0.00418611
-0.00164018 -1.32472 -0.0225257
-0.0275095 -1.27943 -0.0135646
-0.0194041 -1.32641 -0.0278989
-0.00410964 -1.27663 -0.0114035
-0.0356123 -1.43433 -0.0623963
-0.00785549 -1.44948 -0.04977
-0.00497898 -1.44584 -0.0416584
2.57202e-028 5.43721e-030 1.90825e-030
4.21851e-028 1.02051e-029 2.02585e-030
7.89723e-029 9.47494e-031 2.67669e-031
-1.96689 -0.0289197 -0.0102448
-1.85261 -0.0327193 -0.0152619
-1.86674 -0.0315986 -0.00883143
-4.447e-016 3.93009e-018 -3.5494e-018
-5.27738e-016 -1.04436e-017 -4.04655e-018
-5.02365e-016 -1.12873e-017 -5.16058e-018
1.06562e-029 4.40385e-029 -1.37811e-030
-2.16665 -6.43287 0.0358177
5.92657e-029 2.93316e-028 -5.97914e-031
2.23979e-029 1.12437e-028 -3.10298e-030
-1.3864 -5.75094 0.170469
-4.56514e-030 -3.71688e-029 -1.18789e-029
-6.79678e-016 -3.64886e-015 1.50141e-016
-1.26832 -5.7524 0.0577135
-1.22742 -5.68199 0.185527
-5.04889e-016 -2.93763e-015 8.05483e-017
-0.020105 -1.23562 -0.0387674
-0.0358558 -1.2849 -0.0412205
-0.0186942 -1.38597 -0.0573275
-0.00723178 -1.40488 -0.0256544
-2.76554e-028 -6.41531e-031 8.30917e-031
-4.65427e-029 5.72506e-032 8.49049e-032
-1.51599e-028 1.05372e-030 2.64335e-031
4.70002e-029 -9.03834e-030 -8.18082e-030
1.01367 0.00756087 -0.00758617
6.24222e-029 -1.18143e-029 -9.00974e-030
0.897906 -0.00798744 -0.00090744
4.34318e-029 -7.36841e-030 -1.0061e-029
0.9467 0.00261951 0.000161594
-1.32705 -7.15771 -0.070089
-1.18274 -6.12156 -0.0429172
-1.54595 -6.78208 -0.0542508
-1.60316 -6.35295 -0.0506309
-1.06487 -7.16364 -0.0664327
-1.03131 -6.4323 -0.0193884