# vtk DataFile Version 2.0 
output.vtk, Created by Freefem++, via gregorio
ASCII
DATASET UNSTRUCTURED_GRID
POINTS 7451 double
-3.79965 2.23652 0.040848
-4.13429 2.05574 0.276253
-4.09122 2.24524 0.070091
-4.01836 2.27766 0.330071
-3.96697 2.14613 0.158551
-3.94543 2.24088 0.0554695
-3.90901 2.25709 0.185459
-4.11275 2.15049 0.173172
-4.07633 2.1667 0.303162
-4.05479 2.26145 0.200081
-4.81817 0.732763 -0.840268
-4.76136 0.37264 -0.736193
-5.12328 0.495929 -0.550642
-4.73872 0.559667 -0.434419
-4.78977 0.552702 -0.788231
-4.97072 0.614346 -0.695455
-4.77845 0.646215 -0.637344
-4.94232 0.434285 -0.643417
-4.75004 0.466153 -0.585306
-4.931 0.527798 -0.49253
-7.58244 -0.891248 -0.453516
-8 -0.559587 0.124298
-7.26059 -0.264226 0.250847
-7.58828 -0.999993 0.00381
-7.79122 -0.725418 -0.164609
-7.42152 -0.577737 -0.101334
-7.58536 -0.94562 -0.224853
-7.6303 -0.411906 0.187573
-7.79414 -0.77979 0.064054
-7.42444 -0.632109 0.127328
-5.46564 0.048234 0.998836
-5.51396 -0.351144 0.936321
-5.02851 -0.125769 0.598961
-5.56665 -0.148801 0.504295
-5.4898 -0.151455 0.967578
-5.24708 -0.0387675 0.798898
-5.51614 -0.0502835 0.751565
-5.27124 -0.238457 0.767641
-5.5403 -0.249972 0.720308
-5.29758 -0.137285 0.551628
-4.20269 -2.80441 0.102764
-3.63085 -2.57461 -0.287529
-4.13183 -2.29387 0.255347
-4.14432 -2.47254 -0.273935
-3.91677 -2.68951 -0.0923825
-4.16726 -2.54914 0.179055
-4.1735 -2.63848 -0.0855855
-3.88134 -2.43424 -0.016091
-3.88759 -2.52358 -0.280732
-4.13807 -2.38321 -0.009294
-6.25062 -0.085247 0.575431
-6.51584 -0.423084 -0.15939
-6.46019 0.447486 0.293263
-6.75561 -0.174737 0.413139
-6.38323 -0.254165 0.20802
-6.35541 0.181119 0.434347
-6.88822 -0.343655 0.0457285
-6.86039 0.09163 0.272055
-6.48801 0.012201 0.0669365
-4.88162 0.371746 0.655425
-4.51246 -0.112716 0.623981
-4.65723 0.09269 0.995695
-4.69704 0.129515 0.639703
-4.95507 0.122989 0.627193
-4.76942 0.232218 0.82556
-4.77049 -0.119243 0.611471
-4.58484 -0.010013 0.809838
-4.84287 -0.0165395 0.797328
-3.75099 1.20677 0.090288
-3.64118 0.745776 0.266863
-4.09568 0.790235 0.315934
-3.78936 1.07086 0.69071
-3.69609 0.976272 0.178575
-3.92333 0.998502 0.203111
-3.77017 1.13882 0.390499
-3.86843 0.768006 0.291399
-3.71527 0.908319 0.478787
-3.94252 0.930549 0.503322
-2.18572 0.40145 0.915881
-1.75478 0.245881 0.526965
-1.94554 -0.013967 0.999902
-1.76886 0.356252 0.93439
-1.97025 0.323665 0.721423
-2.06563 0.193741 0.957891
-1.97729 0.378851 0.925135
-1.85016 0.115957 0.763433
-1.76182 0.301067 0.730678
-1.8572 0.171143 0.967146
-5.06116 0.824959 0.710182
-4.88551 0.773989 0.80113
-4.92155 0.772883 0.437198
-5.01596 0.602336 0.857802
-4.97333 0.799474 0.755656
-4.99135 0.798921 0.57369
-5.03856 0.713647 0.783992
-4.90353 0.773436 0.619164
-4.95074 0.688163 0.829466
-4.96876 0.687609 0.6475
-2.34262 2.51752 0.051733
-2.4672 2.85727 -0.311185
-2.29554 2.81673 0.086134
-2.65762 2.74748 0.16058
-2.40491 2.6874 -0.129726
-2.31908 2.66712 0.0689335
-2.50012 2.6325 0.106157
-2.38137 2.837 -0.112526
-2.56241 2.80238 -0.0753025
-2.47658 2.7821 0.123357
-3.50303 -3.76846 -0.636668
-3.49422 -3.29308 -1.15018
-3.31427 -3.71149 -1.25136
-2.90724 -3.34218 -0.858121
-3.49863 -3.53077 -0.893424
-3.40865 -3.73997 -0.944014
-3.20514 -3.55532 -0.747394
-3.40425 -3.50228 -1.20077
-3.20073 -3.31763 -1.00415
-3.11076 -3.52683 -1.05474
-4.0054 2.49156 -0.125899
-3.5956 2.50054 -0.194198
-3.83412 2.54803 0.0159
-3.8005 2.49605 -0.160049
-3.90253 2.36404 -0.0425255
-3.91976 2.5198 -0.0549995
-3.69763 2.36853 -0.076675
-3.71486 2.52428 -0.089149
-3.81689 2.39228 0.028374
-3.73452 -3.68531 -1.05781
-3.52439 -3.6984 -1.15459
-3.61437 -3.4892 -1.104
-3.61877 -3.72688 -0.84724
-6.37864 0.944563 0.328331
-6.25891 0.813305 0.581838
-6.65332 0.772267 0.635298
-6.31878 0.878934 0.455085
-6.41941 0.696025 0.310797
-6.51598 0.858415 0.481815
-6.35955 0.630395 0.43755
-6.45612 0.792786 0.608568
-6.55675 0.609877 0.46428
1.62066 -0.841518 -0.540229
1.89324 0.238579 -0.195511
2.01627 -0.690819 -0.723027
2.25185 -0.211859 0.261412
1.75695 -0.30147 -0.36787
1.81846 -0.766169 -0.631628
1.93625 -0.526689 -0.139408
1.95475 -0.22612 -0.459269
2.07254 0.01336 0.0329505
2.13406 -0.451339 -0.230807
-2.56949 2.06853 0.305158
-2.91403 1.60744 0.564909
-3.02709 2.08175 0.021586
-2.87501 2.07662 0.630995
-2.74176 1.83799 0.435033
-2.79829 2.07514 0.163372
-2.72225 2.07258 0.468077
-2.97056 1.8446 0.293247
-2.89452 1.84203 0.597952
-2.95105 2.07919 0.32629
-5.39985 0.358755 0.933432
-5.34934 0.453264 0.543553
-5.56264 0.558471 0.829524
-5.70805 0.297641 0.954678
-5.37459 0.40601 0.738492
-5.48124 0.458613 0.881478
-5.55395 0.328198 0.944055
-5.45599 0.505868 0.686538
-5.52869 0.375452 0.749116
-5.63535 0.428056 0.892101
-4.17913 0.323834 -0.696515
-4.36183 0.516245 -0.417662
-4.60784 0.019305 -0.528365
-4.46586 0.364911 -0.72315
-4.27048 0.42004 -0.557088
-4.39349 0.17157 -0.61244
-4.3225 0.344372 -0.709832
-4.48483 0.267775 -0.473013
-4.41384 0.440578 -0.570406
-4.53685 0.192108 -0.625757
-5.9377 0.438799 -0.558905
-5.87927 0.529091 -0.848565
-6.25926 0.555743 -0.831354
-6.07929 0.245277 -0.969453
-5.90849 0.483945 -0.703735
-6.09848 0.497271 -0.695129
-6.00849 0.342038 -0.764179
-6.06927 0.542417 -0.839959
-5.97928 0.387184 -0.909009
-6.16928 0.40051 -0.900404
-3.64743 2.72944 0.180305
-3.74077 2.63873 0.0981025
-3.72354 2.48298 0.110576
-3.62151 2.61499 -0.0069465
-3.98168 0.388062 0.141859
-3.76543 0.320245 0.603448
-3.81143 0.566919 0.204361
-3.70331 0.533011 0.435156
-4.03868 0.589149 0.228897
-3.87356 0.354154 0.372653
-3.93055 0.55524 0.459691
-6.17342 0.027823 -0.593282
-6.59748 0.255766 -0.966739
-6.35964 0.547779 -0.240473
-6.21634 0.291783 -0.712318
-6.42837 0.405755 -0.899047
-6.30945 0.551761 -0.535914
-6.38545 0.141794 -0.78001
-6.26653 0.287801 -0.416878
-6.47856 0.401772 -0.603606
-5.98474 0.742767 -0.66955
-5.96122 0.590783 -0.614227
-6.122 0.649255 -0.750452
-5.93201 0.635929 -0.759057
-5.86659 0.345457 -0.129882
-5.96054 -0.099592 -0.035866
-6.02 0.18664 -0.361582
-6.11312 0.446618 -0.185177
-5.91357 0.122933 -0.082874
-6.06698 -0.0358845 -0.314574
-6.16009 0.224094 -0.13817
-1.10421 0.363269 -0.931684
-0.773878 0.737644 -0.67519
-0.520452 0.269543 -0.962988
-0.384634 0.008888 -0.353445
-0.939043 0.550457 -0.803437
-0.812329 0.316406 -0.947336
-0.74442 0.186079 -0.642564
-0.647165 0.503594 -0.819089
-0.579256 0.373266 -0.514317
-0.452543 0.139215 -0.658216
-2.85287 -3.00249 -1.21636
-3.23054 -2.92385 -1.196
-3.06719 -3.3306 -1.25351
-2.88006 -3.17233 -1.03724
-3.06889 -3.13301 -1.02706
-2.98722 -3.33639 -1.05581
-3.0417 -2.96317 -1.20618
-2.96003 -3.16654 -1.23493
-3.14886 -3.12722 -1.22475
-3.38618 -2.05134 -0.098565
-2.37808 -2.56123 -0.134541
-2.49252 -2.47812 0.422472
-2.41131 -1.89586 0.044632
-2.88213 -2.30628 -0.116553
-2.93935 -2.26473 0.161954
-2.89875 -1.9736 -0.0269665
-2.4353 -2.51967 0.143966
-2.39469 -2.22855 -0.0449545
-2.45192 -2.18699 0.233552
-1.85713 -0.413967 0.42138
-1.65927 -0.390905 0.920431
-1.2503 -0.077569 0.384148
-1.80595 -0.084043 0.474172
-1.70702 -0.072512 0.723698
-1.50254 0.084156 0.455557
-1.7582 -0.402436 0.670905
-1.55371 -0.245768 0.402764
-1.45478 -0.234237 0.652289
-2.09043 2.55218 0.167395
-2.0659 2.66009 -0.048555
-2.19298 2.68445 0.126765
-2.18072 2.73841 0.0187895
-2.07816 2.60614 0.05942
-2.21652 2.53485 0.109564
-2.20426 2.58881 0.001589
-4.01665 2.44382 0.136481
-3.97233 2.67361 0.084512
-3.92539 2.49592 0.0761905
-3.99449 2.55872 0.110496
-4.01103 2.46769 0.005291
-3.90323 2.61082 0.050206
-3.98887 2.58259 -0.0206935
-3.92754 1.80484 -0.220103
-4.28096 1.83407 -0.225431
-4.13592 1.88983 -0.461486
-4.146 2.03152 -0.278406
-4.10425 1.81945 -0.222767
-4.03173 1.84734 -0.340795
-4.03677 1.91818 -0.249254
-4.20844 1.86195 -0.343458
-4.21348 1.9328 -0.251918
-4.14096 1.96068 -0.369946
-4.04038 -5 0.949212
-3.62468 -5 1.26221
-3.84559 -4.54287 1.07336
-3.71487 -5 0.728948
-3.83253 -5 1.10571
-3.94299 -4.77144 1.01129
-3.87763 -5 0.83908
-3.73513 -4.77144 1.16779
-3.66977 -5 0.99558
-3.78023 -4.77144 0.901156
-1.37334 0.812082 -0.583544
-0.975724 0.961208 -0.275823
-1.19336 -0.166381 -0.273753
-1.17453 0.886645 -0.429683
-1.07361 0.774863 -0.629367
-1.28335 0.32285 -0.428648
-0.874801 0.849426 -0.475506
-1.08454 0.397413 -0.274788
-0.983618 0.285631 -0.474471
-3.83515 -1.82017 -0.741539
-3.34976 -1.58414 -0.592596
-3.50394 -2.07825 -1.02313
-3.59245 -1.70215 -0.667067
-3.66955 -1.94921 -0.882335
-3.61067 -1.93575 -0.420052
-3.42685 -1.83119 -0.807863
-3.36797 -1.81774 -0.345581
-3.44506 -2.06479 -0.560848
-2.72946 0.769161 0.094533
-2.75119 0.681139 -0.326037
-2.98528 1.02631 -0.281501
-3.08113 0.734324 -0.34324
-2.74032 0.72515 -0.115752
-2.85737 0.897737 -0.093484
-2.90529 0.751742 -0.124353
-2.86823 0.853726 -0.303769
-2.91616 0.707731 -0.334639
-3.03321 0.880319 -0.31237
-2.94023 -2.47675 -0.674772
-3.14499 -2.03044 -0.633684
-3.22209 -2.2775 -0.848951
-3.16321 -2.26404 -0.386669
-3.03914 -4.25341 0.579285
-2.64287 -3.80807 0.20828
-2.47531 -4.18593 0.714333
-2.97264 -3.41482 0.618231
-2.84101 -4.03074 0.393783
-2.75723 -4.21967 0.646809
-3.00589 -3.83412 0.598758
-2.55909 -3.997 0.461307
-2.80776 -3.61144 0.413255
-2.72397 -3.80037 0.666282
-2.39684 -0.595487 -0.803365
-1.98884 -0.54749 -0.836812
-2.24172 -0.466498 -0.098067
-2.21295 -0.01831 -0.514797
-2.19284 -0.571489 -0.820088
-2.31928 -0.530992 -0.450716
-2.3049 -0.306899 -0.659081
-2.11528 -0.506994 -0.46744
-2.1009 -0.2829 -0.675804
-2.22734 -0.242404 -0.306432
-3.36239 -4.55484 -1.31864
-3.11171 -4.25429 -0.873787
-2.86199 -4.55394 -1.36046
-2.79118 -5 -0.96439
-3.23705 -4.40456 -1.09621
-3.11219 -4.55439 -1.33955
-3.07678 -4.77742 -1.14151
-2.98685 -4.40411 -1.11712
-2.95144 -4.62714 -0.919088
-2.82658 -4.77697 -1.16243
-3.88203 2.65205 -0.416886
-3.48121 2.84727 -0.340672
-3.82273 3 -0.474998
-3.72541 2.76868 -0.627028
-3.68162 2.74966 -0.378779
-3.85238 2.82603 -0.445942
-3.80372 2.71037 -0.521957
-3.65197 2.92364 -0.407835
-3.60331 2.80798 -0.48385
-3.77407 2.88434 -0.551013
[...]
POINT_DATA 7451
 
FIELD FieldData 2
velocity 3 7451 double
-0.120421 -0.346308 0.00823569
1.48267e-030 3.33663e-030 -1.62638e-031
4.3605e-031 1.19214e-030 -4.75434e-032
1.23614e-030 3.30139e-030 -1.48266e-031
-0.0818217 -0.199477 0.00972576
-0.0719358 -0.198455 0.00787381
-0.0786256 -0.226288 0.0105114
-1.84968e-018 -4.44448e-018 2.66571e-019
5.5248e-018 1.3607e-017 -9.32802e-019
1.85714e-029 -7.95458e-030 -4.33481e-030
8.59083e-030 2.89153e-030 -1.7891e-031
-0.401319 -0.108103 0.000591585
-0.611556 -0.140479 0.00639677
-0.6878 -0.225669 0.00517845
-0.222243 -0.0761603 0.00646182
-0.299788 -0.0920301 0.00906939
-0.396209 -0.144964 0.00838552
-0.522274 -0.132537 0.00621384
-0.577799 -0.171929 0.00456281
-0.659094 -0.189165 0.00724786
9.20153e-029 -2.70431e-031 2.63102e-032
-0.826031 0.00707093 -0.000582096
-1.07326 -1.92987e-005 -0.000488944
5.31992e-029 -2.09915e-031 4.90213e-032
-0.539169 0.00320625 7.69096e-006
-0.815149 -0.000123827 -0.00247043
-1.31446e-016 2.26444e-019 -3.13175e-019
-0.980578 0.00119181 -4.16549e-005
-0.468775 0.006154 -0.000820984
-0.724497 0.0018421 -0.000163781
3.13678e-029 3.18929e-030 5.61835e-032
2.06716e-029 1.29667e-030 2.66638e-031
-0.683488 -0.0988137 -0.0129917
-0.861794 -0.0586858 -0.00480944
-1.44394e-016 -6.61121e-018 -1.47602e-018
-0.413814 -0.0466359 -0.00383392
-0.51461 -0.0324094 -0.00340291
-0.395068 -0.0301852 -0.00738739
-0.494332 -0.0224052 -0.00491889
-0.778133 -0.0809904 -0.00800698
-4.1594e-030 -6.35977e-029 1.03073e-030
0.0271775 0.465994 0.00780999
-4.54886e-030 -7.49884e-029 1.4245e-030
-8.25766e-031 -1.00392e-029 -9.09804e-032
0.0242297 0.302163 -0.000273814
-5.23382e-017 -5.79721e-016 1.44317e-017
-4.13083e-018 -4.19815e-017 1.38874e-019
0.0274512 0.352202 -0.00167126
0.0230413 0.273145 0.00304645
-5.93445e-017 -6.30932e-016 4.06814e-018
-0.809839 -0.015606 -0.00239876
-0.975692 -0.00964296 -0.00183563
-0.880396 -0.012443 -0.00117159
-0.983753 -0.00266382 -0.000985511
-1.10046 -0.0166683 -0.00295522
-0.959227 -0.0164564 -0.00238664
-1.08471 -0.00458437 -0.00351125
-1.13727 -0.00256114 -0.000581546
-1.23299 -0.016544 -0.00157688
-0.550202 -0.178338 0.00421216
-0.557953 -0.096412 -0.0186364
1.78626e-029 4.78251e-030 1.78516e-031
-0.608449 -0.156882 -0.00752762
-0.672336 -0.146781 -0.00366512
-0.302933 -0.10481 0.00309753
-0.620419 -0.105621 -0.0177667
-0.335292 -0.0890314 -0.00968728
-0.381941 -0.0806272 -0.00785823
-0.415344 -0.442736 -0.0156107
-0.448514 -0.255977 -0.0345363
-0.584866 -0.322292 -0.00905371
-0.230034 -0.283058 0.00156498
-0.447771 -0.37255 -0.0274359
-0.501367 -0.383786 -0.0131011
-0.378521 -0.397921 -0.00919722
-0.533525 -0.297208 -0.0217063
-0.371442 -0.312691 -0.0152236
-0.407429 -0.319131 -0.00277753
-1.6113e-029 -5.36535e-030 7.33603e-031
0.336799 0.0439649 -0.00307441
-1.95145e-029 -5.21364e-030 -4.13165e-031
-4.1242e-030 -1.62156e-031 -5.29388e-033
0.181322 0.0241606 -0.0033615
5.82387e-017 2.54743e-018 2.47279e-018
3.11065e-018 1.61194e-019 1.20762e-021
0.206518 0.0135101 -0.000235854
0.192593 0.00847168 0.00190408
-6.71553e-017 2.05384e-022 -9.33038e-019
2.4514e-017 1.13192e-017 -6.36327e-019
2.63271e-030 1.18939e-030 -4.70946e-032
-0.496441 -0.203599 0.00770436
2.81327e-030 1.13956e-030 -4.99901e-032
1.22573e-017 6.09416e-018 -3.58515e-019
-0.280522 -0.123122 0.00598619
9.63922e-017 6.76134e-017 -3.26118e-018
-0.28053 -0.134213 0.00701605
1.49309e-016 7.60001e-017 -3.20085e-018
-0.309311 -0.130929 0.00520952
-0.032683 -0.236255 -0.0106617
-0.0200417 -0.25891 -0.00735014
-0.0123489 -0.234439 -0.00518568
-0.0508155 -0.489363 -0.0109829
-0.0284482 -0.271747 -0.00897151
-0.0227174 -0.236434 -0.00807952
-0.0445124 -0.374808 -0.0122686
-0.018335 -0.273906 -0.00759081
-0.0374122 -0.400968 -0.00952155
-0.0313005 -0.378165 -0.00855114
0.0119283 0.303919 0.0110735
-6.58636e-031 -2.18788e-029 -1.15728e-030
-3.31662e-031 -1.65729e-029 -9.58932e-031
-0.00174071 0.243251 0.0144107
0.00668078 0.154454 0.00868013
0.00578679 0.15117 0.00866915
0.00489285 0.304527 0.014109
2.15874e-029 2.4429e-030 6.2709e-029
0.00218886 0.140975 0.00965581
0.00104688 0.120787 0.00858529
9.37575e-031 3.4968e-030 -8.55278e-032
-0.0902573 -0.380145 0.00371454
-0.0482019 -0.23007 0.0041346
-0.0581627 -0.237202 0.00561962
-0.0600719 -0.195132 0.00521093
-0.0276421 -0.118205 0.00287536
-0.109262 -0.375809 0.00511976
-0.0757278 -0.333813 0.0050087
-0.0814662 -0.287051 0.00644825
-2.68884e-031 -4.88963e-030 -2.4631e-031
-3.78053e-018 -7.05887e-017 -5.02706e-018
3.69317e-018 6.33084e-017 4.41467e-018
0.00804907 0.147767 0.0073348
9.80254e-030 1.66231e-031 6.2675e-033
1.29853e-029 2.13189e-031 1.87731e-032
1.69358e-029 1.80476e-031 4.60249e-032
6.82623e-017 1.49975e-018 1.06246e-019
-0.509298 -0.0124497 -0.00069872
-4.67848e-030 -4.39253e-029 -2.21915e-029
-0.500025 -0.00627566 -0.000772882
-1.78285e-017 8.00039e-019 1.82987e-019
-0.50859 -0.00567467 -0.00112323
-1.41777e-028 3.66199e-031 -6.4018e-032
0.469393 0.000456217 0.000668424
-5.24801e-029 4.53368e-032 -1.22146e-031
0.45733 -0.0020728 0.00124559
0.403648 -0.00131916 0.000283683
-6.49419e-017 5.6369e-020 -2.89163e-019
0.364755 -0.000295254 0.00128138
0.382296 0.000586323 0.000853805
0.517519 -0.00106765 0.00155452
0.385588 -0.00119396 0.00166426
-0.0781302 -0.315603 -0.0217728
-0.113809 -0.314279 -0.0267482
-0.166041 -0.535754 -0.0195447
-0.0866338 -0.370859 -0.0162393
-0.103375 -0.340423 -0.0262658
-0.1307 -0.471967 -0.025296
-0.0903266 -0.372344 -0.0222104
-0.171893 -0.495657 -0.0278922
-0.103526 -0.349357 -0.0218277
-0.146136 -0.524266 -0.0228606
2.96801e-030 3.89158e-031 -6.53476e-032
-0.653089 -0.118959 0.00936468
6.41686e-030 5.08765e-031 -1.12348e-031
2.84186e-029 1.86989e-030 -1.44928e-031
-0.369114 -0.048401 0.0100774
-9.61853e-017 -7.63168e-018 3.39507e-018
1.33777e-016 6.18275e-018 -3.95718e-018
-0.357029 -0.0427842 0.00870963
-0.372496 -0.0302618 0.00688279
-2.18207e-017 -7.23499e-019 7.7764e-019
-0.393616 -0.10175 -0.014081
-0.667302 -0.22674 -0.0105827
-0.709361 -0.110902 -0.00607153
-0.398991 -0.117133 -0.00523223
-0.55173 -0.166806 -0.0133522
-0.567739 -0.117089 -0.0108533
-0.400738 -0.113656 -0.00943975
-0.722648 -0.170082 -0.0107948
-0.563308 -0.178682 -0.00651183
-0.578338 -0.126038 -0.00612656
-0.612525 -0.0138168 0.00147513
3.19261e-030 3.98921e-032 -4.61264e-033
2.83693e-029 3.63293e-031 -1.36989e-031
1.30755e-029 1.85944e-031 -2.3443e-032
-0.331028 -0.0035199 0.00105849
-0.328514 -0.00639189 0.00264786
-0.358346 -0.00442427 0.0018522
-2.35331e-016 -2.00067e-018 1.97761e-018
-1.13405e-016 -3.06603e-019 9.65061e-019
-1.05067e-029 -2.08485e-029 4.67894e-029
-0.0574404 -0.389905 0.00465375
-0.0549671 -0.31833 0.00472896
-0.0849556 -0.365441 0.00573745
-0.0784046 -0.415416 0.00379784
-0.716726 -0.144524 -0.0328924
-0.394305 -0.0461542 -0.0127905
-0.582487 -0.196195 -0.0357589
-0.446228 -0.143174 -0.0266541
-0.670795 -0.251861 -0.0224017
-0.593533 -0.0953891 -0.0254179
-0.527487 -0.202274 -0.0141331
-0.7911 -0.0107212 0.00050231
-3.59336e-017 3.85873e-020 7.82228e-020
-0.792004 -0.00933185 0.00300376
-0.496108 -0.00755068 0.00283975
-2.37241e-029 -2.97845e-029 5.87258e-029
-0.496499 -0.0059363 0.00429841
-0.450831 -0.00802132 0.00166287
-0.918063 -0.0129996 0.00274635
-0.577531 -0.00306235 0.00286014
5.15863e-030 9.4149e-032 -2.92629e-033
-0.335575 -0.00657918 0.00172755
-7.59113e-017 -1.28618e-018 1.61552e-018
-1.00282e-016 -8.87968e-019 5.70086e-019
-1.08333 -0.0503032 0.00204275
-1.21083 -0.040687 -0.00293696
-1.03167 -0.026784 0.000361324
-0.953652 -0.0223742 0.00278125
-1.20981 -0.0495077 -9.63558e-005
-1.107 -0.02643 -0.00137797
-1.15365 -0.0271996 0.00109706
1.93725e-017 -1.73524e-019 -3.09792e-019
-4.6372e-029 3.95011e-031 4.52376e-031
-1.72253e-029 4.64116e-032 9.23386e-032
0.46106 -0.00402697 -0.000910672
-2.97853e-017 3.009e-019 4.34437e-019
1.2814e-029 -3.15583e-029 9.541e-029
0.283316 -0.00275352 -0.00289821
-3.07391e-017 9.71473e-020 3.1863e-019
0.316865 -0.00337259 -0.0023481
0.286396 0.000181137 -0.00197082
8.06257e-032 -7.33972e-030 -5.79125e-031
-3.17498e-031 -2.31204e-029 -1.44193e-030
-5.61556e-033 -2.68258e-030 -2.00867e-031
-0.00133586 0.122511 0.00931328
0.00207871 0.129774 0.0103407
3.62249e-005 0.118393 0.00837907
-7.16411e-019 -6.83858e-017 -5.52832e-018
-9.53182e-020 2.64851e-017 2.32858e-018
-1.32574e-018 -5.61958e-017 2.55672e-018
0.0217566 0.748609 0.00144721
-0.0259291 0.545291 0.00465869
-0.0268081 0.665734 -0.0259613
-0.0280154 0.675999 -0.00992162
-0.0074904 0.793281 0.00526079
-0.00392603 0.892583 -0.0136484
-0.00685453 0.884368 -0.00458398
-0.0278494 0.662936 -0.00758806
-0.0271123 0.611526 -0.000265827
-0.02883 0.698089 -0.0191177
0.357949 0.148737 0.0207916
-2.52626e-029 -1.38974e-030 -1.30732e-031
0.442494 0.0124457 -0.0025379
0.39612 0.0940564 0.00127243
0.240121 0.00529699 -0.000565573
0.409453 0.0281923 -0.000619496
0.19281 0.00405803 0.00740613
0.401803 0.0463417 -0.00247735
0.262599 0.000115512 -0.00324728
-1.96201e-018 -2.65887e-017 -8.62906e-019
1.06485e-031 1.22466e-030 4.79892e-032
-0.00750528 -0.118482 -0.00323951
-0.00805799 -0.115216 -0.00305278
-4.16947e-018 -5.1727e-017 -1.64289e-018
-0.0163438 -0.128112 -0.00578559
-0.0151341 -0.122212 -0.00652201
-7.35602e-018 -2.95919e-017 9.43432e-019
2.74175e-031 1.73843e-030 -3.08904e-032
-0.0309377 -0.132245 0.00354861
1.24114e-017 6.5646e-017 -1.25833e-018
1.99542e-029 -6.5633e-030 -1.23794e-031
-0.0211112 -0.130612 0.0013522
2.18957e-017 1.18822e-016 -1.91869e-018
-0.181346 -0.296344 0.00701305
1.42055e-030 1.99961e-030 -9.80468e-032
6.73958e-031 1.09202e-030 -4.896e-032
5.05886e-031 8.8751e-031 -4.09033e-032
-0.111725 -0.16975 0.00843389
-0.102472 -0.165345 0.00752781
-0.0995193 -0.170312 0.00765999
-5.1205e-017 -7.74858e-017 5.1631e-018
-3.21266e-016 -4.53877e-016 3.35394e-017
-1.97741e-016 -3.33041e-016 2.07501e-017
-1.15557e-031 -3.24013e-030 1.18173e-031
-1.68369e-031 -8.89452e-030 3.82338e-031
-5.50761e-031 -1.58724e-029 7.76042e-031
0.00916624 0.347307 -0.00950633
-3.11145e-018 -1.24895e-016 5.52108e-018
-5.19267e-019 -1.45541e-017 7.01418e-019
0.00590517 0.200063 -0.00640833
2.7638e-018 2.66946e-017 -1.44862e-018
0.00519886 0.235343 -0.00991581
0.00803694 0.235906 -0.0109868
-5.35487e-029 -2.18895e-031 1.12945e-030
-5.62071e-029 2.72726e-031 5.79487e-031
0.464161 -0.00910011 -0.000233067
2.45987e-017 5.7491e-020 -5.96616e-019
-2.67864e-017 1.44949e-019 5.91929e-019
0.37287 -0.00227328 -0.00786963
-6.09315e-017 4.86144e-019 6.0209e-019
0.407967 -0.000994241 -0.00555644
0.359863 -0.00498596 -0.0033104
6.21674e-020 9.46604e-019 4.90727e-020
0.00736068 0.42109 0.0190364
-2.17637e-030 -6.28832e-029 -2.52153e-030
0.00851374 0.22893 0.0119119
-9.3018e-018 -7.08013e-017 -1.02893e-017
0.0202752 0.413056 0.0120728
0.00788094 0.194389 0.0132784
0.0149589 0.619323 0.0139271
0.0161777 0.405179 0.0169405
0.0215239 -0.0564383 -0.0369453
0.0197077 -0.00671883 -0.0277555
-0.125 -0.208988 -0.0296451
-0.130507 -0.0969155 -0.0400533
0.0189955 -0.0404373 -0.0359453
-0.059002 -0.157361 -0.036615
-0.0592804 -0.0982976 -0.0436852
-0.0432037 -0.0915724 -0.0269765
-0.0487518 -0.0497373 -0.0343073
-0.121865 -0.156797 -0.0353435
-0.00186088 0.390813 0.019957
0.00704204 0.436633 0.0202312
0.00723488 0.23439 0.0145762
0.00908075 0.622845 0.0166882
0.000694725 0.598074 -0.0198618
-0.0158712 0.657516 -0.00810446
-0.0159579 0.460072 -0.0225641
-0.000817199 0.651799 -0.0306763
-0.00793539 0.671822 -0.0143228
-0.009124 0.572658 -0.0229426
0.00034867 0.625632 -0.0259379
-0.0179994 0.594218 -0.0163493
-0.00998481 0.697931 -0.0173846
-0.0119387 0.581989 -0.0275315
1.76095e-017 5.41218e-017 3.68943e-018
5.55576e-017 1.37318e-018 9.20024e-020
0.391134 0.450008 -0.0181811
0.293609 0.112204 -0.0234947
-2.72589e-017 -2.4443e-018 4.12579e-029
0.260743 0.302772 -0.0138604
0.197014 0.114285 -0.0173794
0.293273 0.171884 -0.0168673
0.226279 0.058593 -0.0122234
0.37452 0.260577 -0.0256868
8.73306e-019 2.07356e-017 1.64562e-018
0.00218968 0.227628 0.00990414
1.96281e-031 -1.41802e-029 -5.69141e-031
-0.00180172 0.170568 0.00391124
0.00251393 0.103599 0.00618164
1.50406e-018 3.08077e-017 4.04522e-018
0.000659211 0.0932614 0.00373287
5.43468e-005 0.102802 0.00564107
-0.000682011 0.203864 0.00615053
-0.00110044 0.0811937 0.00317506
6.21247e-031 3.40957e-030 -6.83429e-032
-0.0416528 -0.332318 0.0025248
5.87482e-031 1.09892e-029 -1.21587e-031
9.90254e-031 4.98101e-030 -8.91881e-032
-0.0281956 -0.195077 0.00375486
-2.90883e-017 -2.48769e-016 5.69444e-018
2.21883e-029 -4.88161e-030 1.54743e-029
-0.018154 -0.189361 0.00250406
-0.0261988 -0.180719 0.00190354
-2.3353e-017 -2.02418e-016 3.12201e-018
0.498244 -0.000297231 -0.000132608
-1.96239e-029 2.34114e-032 -5.81873e-033
-2.03992e-029 1.49566e-032 4.10415e-033
-3.47262e-029 4.85612e-032 5.58868e-033
0.337801 0.000153604 -5.24732e-005
0.339306 -0.000151531 -0.000224876
0.337277 -0.000267241 5.07481e-005
1.37696e-029 -6.69192e-020 9.37231e-020
1.24804e-029 -6.16535e-021 -1.13829e-020
2.47917e-017 -1.56684e-020 -1.37776e-030
0.192212 0.709619 -0.037658
-0.0131024 0.827432 -0.0186485
-0.0182419 0.849182 -0.070513
0.0347575 0.738158 0.000924863
0.0874073 0.888192 -0.039689
0.0641815 0.819291 -0.06085
0.13225 0.829656 -0.0309257
-0.0195083 0.956752 -0.0501055
0.0500886 0.843426 -0.0107845
0.0407253 0.956923 -0.0432778
-7.33554e-029 9.81415e-032 3.4197e-032
-4.32774e-029 9.0264e-032 1.06785e-031
-5.36628e-029 4.09786e-031 -2.25494e-032
0.457453 -0.00378321 -9.90335e-005
1.92198e-017 -2.00557e-022 -1.05383e-019
1.91314e-017 -3.06129e-022 -6.66359e-022
0.362456 5.09411e-005 -0.00137588
8.84644e-019 1.03602e-028 3.41521e-030
0.324201 0.000405331 -0.00118448
0.368362 -0.00235334 0.000432181
7.97872e-030 4.62354e-030 -2.21051e-031
-0.383302 -0.230543 0.011227
2.71989e-030 1.60289e-030 -9.52342e-032
-0.262011 -0.167073 0.00916537
-0.254736 -0.135604 0.00722171
5.61346e-016 3.76862e-016 -2.63511e-017
-0.440137 -0.220383 0.00927231
-0.231803 -0.151057 0.0106325
-0.244687 -0.133728 0.00733252
-0.818357 0.000701626 0.00579915
1.74037e-028 -2.00305e-031 -2.49869e-031
1.29732e-029 -8.04546e-032 -1.61201e-031
-0.817161 0.00486891 0.00281838
-0.542665 0.00245905 0.00265448
-0.489367 -0.000527694 0.00617294
-0.904055 0.00378971 0.0034137
-2.24323e-029 3.25783e-029 6.06339e-029
-0.461615 0.0040988 0.00178525
-0.493563 0.00615898 0.00340514
-3.5092e-029 3.66651e-031 2.6041e-031
-1.28908e-029 2.18699e-031 1.66945e-031
-1.99596e-029 -7.56462e-031 1.17288e-031
-4.47236e-017 1.94659e-018 4.19387e-019
-1.15975e-018 1.94878e-020 4.06902e-020
0.290408 -0.00281704 -0.00208231
-1.59362e-017 4.24753e-019 6.10011e-019
0.268484 -0.00565615 -0.00235285
0.278404 0.00319955 -0.0113811
-7.66134e-029 1.1706e-030 -2.05377e-031
0.370335 -0.00588206 0.000163666
0.310066 -0.00866615 0.00166128
0.335736 -0.00646969 0.000681974
0.513051 -0.00713516 -0.000352267
0.529733 -0.00492099 -0.000239159
0.466947 -0.00908776 -0.000696432
-1.68064e-029 -9.28187e-032 8.96414e-033
-3.15533e-029 4.51274e-031 -1.69899e-032
5.26534e-017 -2.56582e-018 -2.95785e-019
4.59248e-017 -1.9837e-018 -3.1124e-019
0.271861 -0.00367074 -0.00070866
4.12306e-018 -2.05e-019 -4.89886e-020
0.279356 -0.00435935 -0.00279655
-5.8732e-029 2.09288e-031 2.34507e-031
0.457 0.00163786 -0.000646904
-3.91009e-029 1.21284e-031 1.02091e-031
0.281507 -0.0013975 -0.000764989
-9.50915e-017 1.07081e-019 6.79902e-019
0.359931 -0.00270256 -0.00182003
0.292882 5.83408e-006 -0.000768344
0.479006 -0.00128492 -0.000757508
0.30927 0.00076051 -0.002164
-1.57443e-029 1.17517e-031 -1.27982e-031
-4.6319e-029 1.10494e-032 -3.05109e-031
-5.39433e-029 3.00075e-031 -2.60299e-031
3.26126e-017 -5.16125e-019 8.18809e-019
-3.50954e-017 5.97625e-019 -7.81412e-019
0.284605 -0.00373135 0.00563668
-2.29161e-017 3.23905e-019 -3.79635e-019
0.295882 -0.00287298 0.00381938
0.295718 -0.0032933 0.00281593
1.38282e-030 -8.09148e-030 3.92654e-031
-0.177049 0.11826 -0.0200428
1.87393e-030 -3.72439e-030 5.10675e-031
0.0723772 0.226089 -0.0251296
-0.059415 0.0856095 -0.00537743
-1.36198e-017 -3.17261e-018 -2.29565e-020
0.00780622 0.138961 -0.00644769
-0.0671113 0.0433657 -0.00487606
-0.0680786 0.185683 -0.0207708
-0.00441478 0.0781185 -0.00731264
-6.38691e-030 -3.29242e-030 -6.92002e-031
-5.1165e-029 -7.05789e-030 -6.84587e-031
-8.6398e-030 -1.81882e-029 2.6869e-031
0.202605 0.0401787 0.0314099
0.239574 0.0821199 0.0174304
0.251295 0.186219 0.0453576
2.7178e-030 5.10429e-029 -3.16789e-029
5.4994e-017 4.96861e-017 1.11418e-017
-6.87672e-017 -4.2767e-017 -1.15515e-017
-2.05625e-029 -5.1674e-032 -6.7303e-033
-1.31846e-017 4.34874e-019 -8.15606e-020
5.0973e-017 -1.74396e-018 1.22027e-020
0.300791 -0.001697 0.00161352
-0.0936361 -0.269692 0.00269518
1.57263e-030 3.22535e-030 -4.78231e-032
-0.150947 -0.26611 -0.00452224
3.4971e-030 7.9557e-030 4.69898e-032
-0.0601286 -0.139083 0.00354407
-0.126364 -0.276648 -0.000866135
-0.0605035 -0.147002 0.00220356
-0.0836122 -0.153278 0.00148271
9.95014e-018 1.96788e-017 -4.31277e-019
-0.0730532 -0.140353 -0.000224669
-0.280188 -0.324808 -0.0275159
-0.260205 -0.48546 -0.0257833
-0.116909 -0.185396 -0.0145967
-0.215263 -0.281205 -0.0331416
-0.278704 -0.416489 -0.0274387
-0.193476 -0.274353 -0.0228798
-0.218372 -0.368983 -0.0336019
-0.130853 -0.207485 -0.0197561
-0.207673 -0.366703 -0.0257408
0.455357 0.00149604 0.000100983
-9.23205e-029 -2.42457e-031 3.25189e-031
-3.79304e-029 -1.74656e-031 4.84737e-032
0.467805 0.00200729 -0.000709211
0.298549 0.00230241 -0.000811335
0.282424 0.00232688 0.000634405
0.474717 0.00247512 -0.000979367
4.04087e-029 -8.22234e-030 -1.0321e-028
0.390042 -0.00142797 -0.00151027
0.343547 -0.000373143 -0.00031019
-1.6632e-029 2.26783e-032 1.58075e-032
-4.39922e-029 1.45403e-032 -9.67013e-033
-8.20376e-029 3.1868e-032 4.18777e-032
1.26598e-029 4.65965e-029 8.21171e-029
0.286812 -0.000409312 -0.000240033
6.25302e-017 2.85372e-019 -2.77219e-020
0.314083 0.000648034 0.000476909
-2.95114e-017 -9.26849e-020 2.14593e-020
0.286668 -3.90352e-005 -0.000367344
-2.48619e-029 4.26839e-032 -2.61706e-032
-4.81779e-029 4.729e-032 -1.01086e-031
0.494416 -0.000545316 0.000210851
-8.31752e-029 1.1515e-031 -1.97933e-031
8.16736e-017 -1.84651e-019 3.89564e-019
0.375797 -0.000797061 0.000696551
-6.4445e-017 3.47129e-019 -1.58754e-019
0.386013 -0.000639028 0.0018634
3.05621e-017 5.66829e-020 2.00431e-019
0.366285 -0.0021412 0.00062795
0.45433 0.00117626 -0.00062107
-9.21034e-029 2.46879e-032 9.61663e-032
0.521352 0.000171599 -5.17007e-005
0.33462 0.000286168 -0.000406163
0.457502 0.00197898 0.000417923
0.365459 -0.00142753 0.00107332
0.5274 0.00193096 -0.000883686
0.371997 0.000816988 -0.000328705
1.2346e-029 1.2432e-031 -8.95926e-032
-0.339945 -0.00537777 0.00445135
7.71173e-017 2.99494e-018 -1.09265e-018
-0.452393 -0.00491399 0.00453282
-0.735686 -0.010934 0.00401704
1.12532e-030 -4.6371e-029 2.68454e-030
1.39704e-031 -8.50208e-029 4.79266e-030
-0.00886308 0.533442 -0.030414
-3.39012e-005 0.533022 -0.0310197
-0.0110213 0.369443 -0.0227335
1.22563e-018 -6.88699e-017 4.50911e-018
-0.00715099 0.43337 -0.0260499
0.000671044 0.593867 0.0037618
0.012832 0.322053 0.00533806
0.00446892 0.579103 -0.00245786
0.000226643 0.423946 0.00377764
0.00983909 0.494783 0.00578129
0.00369898 0.590226 0.000228958
0.000464813 0.516905 0.00462189
0.00886429 0.48172 0.00200077
0.00571091 0.404039 0.00474673
0.00223668 0.531857 0.00178789
0.0078592 0.304683 0.0089631
0.00194833 0.439143 0.00983177
0.00103075 0.330909 0.00631906
8.07781e-029 1.49077e-030 5.72797e-031
1.35576e-028 2.77171e-030 8.37262e-031
2.42871e-029 2.88173e-031 1.03515e-031
-0.61533 -0.00794869 -0.00315224
-0.580279 -0.00902697 -0.00534515
-0.580238 -0.00991506 -0.00317547
-1.32852e-016 2.71299e-019 -1.64916e-018
-1.57146e-016 -2.89597e-018 -1.20124e-018
-1.49363e-016 -3.13539e-018 -1.68816e-018
6.75232e-031 2.46157e-030 -5.69453e-032
-0.155274 -0.442476 -0.00141256
3.77763e-030 1.79566e-029 5.36984e-032
1.4172e-030 6.66912e-030 -1.25063e-031
-0.0891237 -0.323267 0.00641227
4.40973e-030 -3.90118e-030 -2.64667e-029
-3.9887e-017 -1.89595e-016 6.54483e-018