# vtk DataFile Version 2.0 
output.vtk, Created by Freefem++, via gregorio
ASCII
DATASET UNSTRUCTURED_GRID
POINTS 7451 double
-3.79965 2.23652 0.040848
-4.13429 2.05574 0.276253
-4.09122 2.24524 0.070091
-4.01836 2.27766 0.330071
-3.96697 2.14613 0.158551
-3.94543 2.24088 0.0554695
-3.90901 2.25709 0.185459
-4.11275 2.15049 0.173172
-4.07633 2.1667 0.303162
-4.05479 2.26145 0.200081
-4.81817 0.732763 -0.840268
-4.76136 0.37264 -0.736193
-5.12328 0.495929 -0.550642
-4.73872 0.559667 -0.434419
-4.78977 0.552702 -0.788231
-4.97072 0.614346 -0.695455
-4.77845 0.646215 -0.637344
-4.94232 0.434285 -0.643417
-4.75004 0.466153 -0.585306
-4.931 0.527798 -0.49253
-7.58244 -0.891248 -0.453516
-8 -0.559587 0.124298
-7.26059 -0.264226 0.250847
-7.58828 -0.999993 0.00381
-7.79122 -0.725418 -0.164609
-7.42152 -0.577737 -0.101334
-7.58536 -0.94562 -0.224853
-7.6303 -0.411906 0.187573
-7.79414 -0.77979 0.064054
-7.42444 -0.632109 0.127328
-5.46564 0.048234 0.998836
-5.51396 -0.351144 0.936321
-5.02851 -0.125769 0.598961
-5.56665 -0.148801 0.504295
-5.4898 -0.151455 0.967578
-5.24708 -0.0387675 0.798898
-5.51614 -0.0502835 0.751565
-5.27124 -0.238457 0.767641
-5.5403 -0.249972 0.720308
-5.29758 -0.137285 0.551628
-4.20269 -2.80441 0.102764
-3.63085 -2.57461 -0.287529
-4.13183 -2.29387 0.255347
-4.14432 -2.47254 -0.273935
-3.91677 -2.68951 -0.0923825
-4.16726 -2.54914 0.179055
-4.1735 -2.63848 -0.0855855
-3.88134 -2.43424 -0.016091
-3.88759 -2.52358 -0.280732
-4.13807 -2.38321 -0.009294
-6.25062 -0.085247 0.575431
-6.51584 -0.423084 -0.15939
-6.46019 0.447486 0.293263
-6.75561 -0.174737 0.413139
-6.38323 -0.254165 0.20802
-6.35541 0.181119 0.434347
-6.88822 -0.343655 0.0457285
-6.86039 0.09163 0.272055
-6.48801 0.012201 0.0669365
-4.88162 0.371746 0.655425
-4.51246 -0.112716 0.623981
-4.65723 0.09269 0.995695
-4.69704 0.129515 0.639703
-4.95507 0.122989 0.627193
-4.76942 0.232218 0.82556
-4.77049 -0.119243 0.611471
-4.58484 -0.010013 0.809838
-4.84287 -0.0165395 0.797328
-3.75099 1.20677 0.090288
-3.64118 0.745776 0.266863
-4.09568 0.790235 0.315934
-3.78936 1.07086 0.69071
-3.69609 0.976272 0.178575
-3.92333 0.998502 0.203111
-3.77017 1.13882 0.390499
-3.86843 0.768006 0.291399
-3.71527 0.908319 0.478787
-3.94252 0.930549 0.503322
-2.18572 0.40145 0.915881
-1.75478 0.245881 0.526965
-1.94554 -0.013967 0.999902
-1.76886 0.356252 0.93439
-1.97025 0.323665 0.721423
-2.06563 0.193741 0.957891
-1.97729 0.378851 0.925135
-1.85016 0.115957 0.763433
-1.76182 0.301067 0.730678
-1.8572 0.171143 0.967146
-5.06116 0.824959 0.710182
-4.88551 0.773989 0.80113
-4.92155 0.772883 0.437198
-5.01596 0.602336 0.857802
-4.97333 0.799474 0.755656
-4.99135 0.798921 0.57369
-5.03856 0.713647 0.783992
-4.90353 0.773436 0.619164
-4.95074 0.688163 0.829466
-4.96876 0.687609 0.6475
-2.34262 2.51752 0.051733
-2.4672 2.85727 -0.311185
-2.29554 2.81673 0.086134
-2.65762 2.74748 0.16058
-2.40491 2.6874 -0.129726
-2.31908 2.66712 0.0689335
-2.50012 2.6325 0.106157
-2.38137 2.837 -0.112526
-2.56241 2.80238 -0.0753025
-2.47658 2.7821 0.123357
-3.50303 -3.76846 -0.636668
-3.49422 -3.29308 -1.15018
-3.31427 -3.71149 -1.25136
-2.90724 -3.34218 -0.858121
-3.49863 -3.53077 -0.893424
-3.40865 -3.73997 -0.944014
-3.20514 -3.55532 -0.747394
-3.40425 -3.50228 -1.20077
-3.20073 -3.31763 -1.00415
-3.11076 -3.52683 -1.05474
-4.0054 2.49156 -0.125899
-3.5956 2.50054 -0.194198
-3.83412 2.54803 0.0159
-3.8005 2.49605 -0.160049
-3.90253 2.36404 -0.0425255
-3.91976 2.5198 -0.0549995
-3.69763 2.36853 -0.076675
-3.71486 2.52428 -0.089149
-3.81689 2.39228 0.028374
-3.73452 -3.68531 -1.05781
-3.52439 -3.6984 -1.15459
-3.61437 -3.4892 -1.104
-3.61877 -3.72688 -0.84724
-6.37864 0.944563 0.328331
-6.25891 0.813305 0.581838
-6.65332 0.772267 0.635298
-6.31878 0.878934 0.455085
-6.41941 0.696025 0.310797
-6.51598 0.858415 0.481815
-6.35955 0.630395 0.43755
-6.45612 0.792786 0.608568
-6.55675 0.609877 0.46428
1.62066 -0.841518 -0.540229
1.89324 0.238579 -0.195511
2.01627 -0.690819 -0.723027
2.25185 -0.211859 0.261412
1.75695 -0.30147 -0.36787
1.81846 -0.766169 -0.631628
1.93625 -0.526689 -0.139408
1.95475 -0.22612 -0.459269
2.07254 0.01336 0.0329505
2.13406 -0.451339 -0.230807
-2.56949 2.06853 0.305158
-2.91403 1.60744 0.564909
-3.02709 2.08175 0.021586
-2.87501 2.07662 0.630995
-2.74176 1.83799 0.435033
-2.79829 2.07514 0.163372
-2.72225 2.07258 0.468077
-2.97056 1.8446 0.293247
-2.89452 1.84203 0.597952
-2.95105 2.07919 0.32629
-5.39985 0.358755 0.933432
-5.34934 0.453264 0.543553
-5.56264 0.558471 0.829524
-5.70805 0.297641 0.954678
-5.37459 0.40601 0.738492
-5.48124 0.458613 0.881478
-5.55395 0.328198 0.944055
-5.45599 0.505868 0.686538
-5.52869 0.375452 0.749116
-5.63535 0.428056 0.892101
-4.17913 0.323834 -0.696515
-4.36183 0.516245 -0.417662
-4.60784 0.019305 -0.528365
-4.46586 0.364911 -0.72315
-4.27048 0.42004 -0.557088
-4.39349 0.17157 -0.61244
-4.3225 0.344372 -0.709832
-4.48483 0.267775 -0.473013
-4.41384 0.440578 -0.570406
-4.53685 0.192108 -0.625757
-5.9377 0.438799 -0.558905
-5.87927 0.529091 -0.848565
-6.25926 0.555743 -0.831354
-6.07929 0.245277 -0.969453
-5.90849 0.483945 -0.703735
-6.09848 0.497271 -0.695129
-6.00849 0.342038 -0.764179
-6.06927 0.542417 -0.839959
-5.97928 0.387184 -0.909009
-6.16928 0.40051 -0.900404
-3.64743 2.72944 0.180305
-3.74077 2.63873 0.0981025
-3.72354 2.48298 0.110576
-3.62151 2.61499 -0.0069465
-3.98168 0.388062 0.141859
-3.76543 0.320245 0.603448
-3.81143 0.566919 0.204361
-3.70331 0.533011 0.435156
-4.03868 0.589149 0.228897
-3.87356 0.354154 0.372653
-3.93055 0.55524 0.459691
-6.17342 0.027823 -0.593282
-6.59748 0.255766 -0.966739
-6.35964 0.547779 -0.240473
-6.21634 0.291783 -0.712318
-6.42837 0.405755 -0.899047
-6.30945 0.551761 -0.535914
-6.38545 0.141794 -0.78001
-6.26653 0.287801 -0.416878
-6.47856 0.401772 -0.603606
-5.98474 0.742767 -0.66955
-5.96122 0.590783 -0.614227
-6.122 0.649255 -0.750452
-5.93201 0.635929 -0.759057
-5.86659 0.345457 -0.129882
-5.96054 -0.099592 -0.035866
-6.02 0.18664 -0.361582
-6.11312 0.446618 -0.185177
-5.91357 0.122933 -0.082874
-6.06698 -0.0358845 -0.314574
-6.16009 0.224094 -0.13817
-1.10421 0.363269 -0.931684
-0.773878 0.737644 -0.67519
-0.520452 0.269543 -0.962988
-0.384634 0.008888 -0.353445
-0.939043 0.550457 -0.803437
-0.812329 0.316406 -0.947336
-0.74442 0.186079 -0.642564
-0.647165 0.503594 -0.819089
-0.579256 0.373266 -0.514317
-0.452543 0.139215 -0.658216
-2.85287 -3.00249 -1.21636
-3.23054 -2.92385 -1.196
-3.06719 -3.3306 -1.25351
-2.88006 -3.17233 -1.03724
-3.06889 -3.13301 -1.02706
-2.98722 -3.33639 -1.05581
-3.0417 -2.96317 -1.20618
-2.96003 -3.16654 -1.23493
-3.14886 -3.12722 -1.22475
-3.38618 -2.05134 -0.098565
-2.37808 -2.56123 -0.134541
-2.49252 -2.47812 0.422472
-2.41131 -1.89586 0.044632
-2.88213 -2.30628 -0.116553
-2.93935 -2.26473 0.161954
-2.89875 -1.9736 -0.0269665
-2.4353 -2.51967 0.143966
-2.39469 -2.22855 -0.0449545
-2.45192 -2.18699 0.233552
-1.85713 -0.413967 0.42138
-1.65927 -0.390905 0.920431
-1.2503 -0.077569 0.384148
-1.80595 -0.084043 0.474172
-1.70702 -0.072512 0.723698
-1.50254 0.084156 0.455557
-1.7582 -0.402436 0.670905
-1.55371 -0.245768 0.402764
-1.45478 -0.234237 0.652289
-2.09043 2.55218 0.167395
-2.0659 2.66009 -0.048555
-2.19298 2.68445 0.126765
-2.18072 2.73841 0.0187895
-2.07816 2.60614 0.05942
-2.21652 2.53485 0.109564
-2.20426 2.58881 0.001589
-4.01665 2.44382 0.136481
-3.97233 2.67361 0.084512
-3.92539 2.49592 0.0761905
-3.99449 2.55872 0.110496
-4.01103 2.46769 0.005291
-3.90323 2.61082 0.050206
-3.98887 2.58259 -0.0206935
-3.92754 1.80484 -0.220103
-4.28096 1.83407 -0.225431
-4.13592 1.88983 -0.461486
-4.146 2.03152 -0.278406
-4.10425 1.81945 -0.222767
-4.03173 1.84734 -0.340795
-4.03677 1.91818 -0.249254
-4.20844 1.86195 -0.343458
-4.21348 1.9328 -0.251918
-4.14096 1.96068 -0.369946
-4.04038 -5 0.949212
-3.62468 -5 1.26221
-3.84559 -4.54287 1.07336
-3.71487 -5 0.728948
-3.83253 -5 1.10571
-3.94299 -4.77144 1.01129
-3.87763 -5 0.83908
-3.73513 -4.77144 1.16779
-3.66977 -5 0.99558
-3.78023 -4.77144 0.901156
-1.37334 0.812082 -0.583544
-0.975724 0.961208 -0.275823
-1.19336 -0.166381 -0.273753
-1.17453 0.886645 -0.429683
-1.07361 0.774863 -0.629367
-1.28335 0.32285 -0.428648
-0.874801 0.849426 -0.475506
-1.08454 0.397413 -0.274788
-0.983618 0.285631 -0.474471
-3.83515 -1.82017 -0.741539
-3.34976 -1.58414 -0.592596
-3.50394 -2.07825 -1.02313
-3.59245 -1.70215 -0.667067
-3.66955 -1.94921 -0.882335
-3.61067 -1.93575 -0.420052
-3.42685 -1.83119 -0.807863
-3.36797 -1.81774 -0.345581
-3.44506 -2.06479 -0.560848
-2.72946 0.769161 0.094533
-2.75119 0.681139 -0.326037
-2.98528 1.02631 -0.281501
-3.08113 0.734324 -0.34324
-2.74032 0.72515 -0.115752
-2.85737 0.897737 -0.093484
-2.90529 0.751742 -0.124353
-2.86823 0.853726 -0.303769
-2.91616 0.707731 -0.334639
-3.03321 0.880319 -0.31237
-2.94023 -2.47675 -0.674772
-3.14499 -2.03044 -0.633684
-3.22209 -2.2775 -0.848951
-3.16321 -2.26404 -0.386669
-3.03914 -4.25341 0.579285
-2.64287 -3.80807 0.20828
-2.47531 -4.18593 0.714333
-2.97264 -3.41482 0.618231
-2.84101 -4.03074 0.393783
-2.75723 -4.21967 0.646809
-3.00589 -3.83412 0.598758
-2.55909 -3.997 0.461307
-2.80776 -3.61144 0.413255
-2.72397 -3.80037 0.666282
-2.39684 -0.595487 -0.803365
-1.98884 -0.54749 -0.836812
-2.24172 -0.466498 -0.098067
-2.21295 -0.01831 -0.514797
-2.19284 -0.571489 -0.820088
-2.31928 -0.530992 -0.450716
-2.3049 -0.306899 -0.659081
-2.11528 -0.506994 -0.46744
-2.1009 -0.2829 -0.675804
-2.22734 -0.242404 -0.306432
-3.36239 -4.55484 -1.31864
-3.11171 -4.25429 -0.873787
-2.86199 -4.55394 -1.36046
-2.79118 -5 -0.96439
-3.23705 -4.40456 -1.09621
-3.11219 -4.55439 -1.33955
-3.07678 -4.77742 -1.14151
-2.98685 -4.40411 -1.11712
-2.95144 -4.62714 -0.919088
-2.82658 -4.77697 -1.16243
-3.88203 2.65205 -0.416886
-3.48121 2.84727 -0.340672
-3.82273 3 -0.474998
-3.72541 2.76868 -0.627028
-3.68162 2.74966 -0.378779
-3.85238 2.82603 -0.445942
-3.80372 2.71037 -0.521957
-3.65197 2.92364 -0.407835
-3.60331 2.80798 -0.48385
-3.77407 2.88434 -0.551013
[...]
POINT_DATA 7451
 
FIELD FieldData 2
velocity 3 7451 double
-0.148934 -0.433277 -0.00032477
2.20674e-030 5.03334e-030 -9.49756e-032
7.86498e-031 2.19833e-030 -3.60145e-033
1.84149e-030 4.92563e-030 -9.26111e-032
-0.133794 -0.339351 0.00433643
-0.132661 -0.386829 -0.00134988
-0.142894 -0.383005 0.0122637
-3.79615e-018 -1.00751e-017 6.22632e-020
1.03723e-017 2.53647e-017 -8.97606e-019
8.1772e-030 -4.53001e-030 -2.00252e-030
8.88528e-030 3.5425e-030 -3.98887e-032
-0.396039 -0.125027 -0.00135887
-0.582619 -0.143185 0.00194121
-0.650046 -0.237622 0.00366386
-0.247406 -0.103562 0.00158373
-0.324284 -0.120813 -0.00124868
-0.408189 -0.172217 0.00344212
-0.508097 -0.14936 0.00621084
-0.555569 -0.190058 0.00326947
-0.626155 -0.203592 0.000479708
8.77103e-029 -7.27084e-032 7.29591e-032
-0.755704 0.00462857 -0.00081578
-0.956475 -0.000870568 -0.000651981
5.15155e-029 -9.32864e-032 7.68174e-032
-0.521435 0.00116037 -0.00156083
-0.781451 -0.00142858 -0.00320452
-1.31366e-016 -1.37322e-019 -5.30667e-019
-0.895049 -0.000893214 -0.000362838
-0.467864 0.00302492 -0.0027677
-0.699194 -5.45659e-005 -0.00117082
3.02019e-029 2.99367e-030 -5.58103e-033
2.00756e-029 1.26503e-030 2.5056e-031
-0.618116 -0.0703271 -0.00326377
-0.779258 -0.0460999 -0.00221178
-1.06701e-016 -9.81414e-018 -2.76613e-018
-0.400923 -0.0462072 -0.00547249
-0.500468 -0.0372269 -0.00431789
-0.388674 -0.0278697 -0.00861694
-0.485823 -0.0239293 -0.00818789
-0.708531 -0.0611484 0.0005418
-2.8976e-030 -4.56333e-029 3.7356e-031
0.0253334 0.437278 0.0107326
-3.20739e-030 -5.32566e-029 4.92162e-031
-5.84204e-031 -7.63616e-030 -1.56828e-031
0.0172994 0.225409 0.00215492
-3.23354e-017 -4.40893e-016 5.29585e-018
-2.42323e-018 -2.40575e-017 -1.29745e-019
0.0194506 0.253446 0.00148761
0.0151259 0.189391 0.0042693
-3.52328e-017 -3.60529e-016 -6.28135e-019
-0.739939 -0.0152746 -0.00239119
-0.86969 -0.00985201 0.000147458
-0.804991 -0.0125389 -0.00124269
-0.905606 -0.00585946 -0.00125674
-1.00271 -0.0158411 -0.00133971
-0.882312 -0.0173457 -0.00282273
-0.982738 -0.0044422 -0.00248005
-1.03584 -0.00537922 -0.00119451
-1.13462 -0.0165828 -0.00114802
-0.51181 -0.142396 -0.000883215
-0.507359 -0.0722073 -0.00307723
1.69712e-029 3.90291e-030 -2.34664e-032
-0.562861 -0.128004 0.00163175
-0.617008 -0.112889 -0.000504338
-0.298273 -0.0907449 0.00306214
-0.570401 -0.0754872 -0.00178814
-0.321535 -0.0729641 -0.00549471
-0.365395 -0.0683194 -0.00252537
-0.391401 -0.500404 -0.000276216
-0.390165 -0.326415 0.00630297
-0.527873 -0.343025 0.00120416
-0.217561 -0.265863 0.000587614
-0.396499 -0.427869 -0.000402609
-0.461194 -0.41848 0.00635101
-0.35086 -0.431179 0.00231583
-0.474127 -0.345796 0.00822779
-0.329776 -0.353085 0.00375509
-0.366683 -0.34039 0.00178723
-1.50757e-029 -1.49246e-030 -3.09898e-031
0.286958 0.0184597 0.000317775
-1.76077e-029 -2.37307e-030 -5.00329e-031
-3.98975e-030 3.87401e-032 -4.55418e-032
0.172663 0.00166876 0.00417897
5.31926e-017 -6.70775e-018 9.42163e-019
3.3134e-018 -1.47326e-019 1.27295e-019
0.189322 0.00480497 -0.00129943
0.189727 -0.00217252 0.00439007
-6.85697e-017 1.92037e-018 -8.53373e-019
3.0644e-017 1.39106e-017 1.42871e-019
2.76957e-030 1.18041e-030 2.00564e-032
-0.478577 -0.194769 -0.00603865
2.94014e-030 1.10773e-030 -3.32755e-033
1.50347e-017 7.08581e-018 -1.14218e-019
-0.315169 -0.137449 -0.00242126
1.80136e-016 4.89542e-017 3.58188e-019
-0.307837 -0.14078 0.00231701
1.73262e-016 7.93384e-017 5.27655e-019
-0.32975 -0.133428 -0.00186748
-0.0474989 -0.329681 -0.000684715
-0.0259174 -0.383952 -0.00572742
-0.0168333 -0.326041 0.002879
-0.057297 -0.548935 0.00124234
-0.0383118 -0.402825 -0.000521982
-0.0330832 -0.327056 0.00214901
-0.053483 -0.45893 0.00166629
-0.022174 -0.414839 -0.00228794
-0.0444049 -0.541355 0.000575311
-0.0390229 -0.462684 0.0049591
0.0120844 0.331956 0.0150184
-5.48011e-031 -2.38461e-029 -1.34224e-030
-2.44917e-031 -1.87929e-029 -1.20751e-030
-0.00204992 0.302196 0.0191142
0.0054955 0.163253 0.00864992
0.00477623 0.165662 0.0106442
0.0045971 0.350215 0.0177654
1.21185e-030 9.03097e-030 3.73416e-030
0.000531901 0.154648 0.0111836
-0.00174415 0.133025 0.0099634
1.6114e-030 6.25186e-030 8.61485e-033
-0.1149 -0.513228 -0.00120768
-0.0834807 -0.375716 -0.00472044
-0.104946 -0.437061 0.00394736
-0.113873 -0.37451 -0.00536199
-0.0641752 -0.27098 -0.00562117
-0.142049 -0.501147 -0.00122258
-0.11074 -0.493052 -0.00319894
-0.117944 -0.409572 -0.00490357
-2.31323e-031 -4.93385e-030 -2.76598e-031
-2.30246e-018 -6.39953e-017 -4.58827e-018
2.3229e-018 5.51258e-017 3.18486e-018
0.00606006 0.133565 0.00641851
9.93549e-030 1.87474e-031 1.96117e-033
1.30804e-029 2.6617e-031 -1.06863e-032
1.70135e-029 2.35472e-031 6.67996e-032
7.50189e-017 1.76905e-018 -1.3058e-019
-0.523016 -0.0123961 -1.06096e-005
-7.34501e-030 -4.69842e-030 -2.32795e-030
-0.504938 -0.00862244 0.000477949
8.69457e-017 1.43896e-018 2.80222e-019
-0.520151 -0.00795101 -0.00310588
-1.27587e-028 3.59317e-031 -6.49054e-032
0.399831 0.000266231 0.000521943
-4.77548e-029 1.23554e-031 -1.28859e-031
0.38676 -0.00153098 0.00114343
0.361704 -0.001602 0.000349709
-6.09954e-017 2.88329e-019 -2.96112e-019
0.332169 -0.00130971 0.00120005
0.348728 -0.000446593 0.00130537
0.449962 -0.000440511 0.00103128
0.351187 -0.00177192 0.00175033
-0.0947274 -0.364624 -0.00121246
-0.129471 -0.328662 -0.0052741
-0.182951 -0.620629 -0.000844845
-0.100763 -0.34906 -0.00127983
-0.122654 -0.385678 -0.00720678
-0.148339 -0.546053 -0.00260418
-0.107327 -0.398977 -0.00224152
-0.185365 -0.540944 -0.00199197
-0.123345 -0.352095 -0.00363933
-0.157811 -0.562528 -0.00304565
3.08216e-030 4.1822e-031 -8.43345e-032
-0.618582 -0.102782 0.00615832
6.63485e-030 5.77672e-031 -1.58173e-031
2.77635e-029 1.99575e-030 -2.24008e-031
-0.391063 -0.050992 0.0134431
-1.10397e-016 -1.11108e-017 4.88829e-018
1.50736e-016 1.16194e-017 -6.27999e-018
-0.376868 -0.0465585 0.00994431
-0.385912 -0.0364505 0.00912091
-2.49297e-017 -1.84446e-018 1.06383e-018
-0.370432 -0.128659 -0.0102573
-0.621949 -0.255285 -0.00118833
-0.649836 -0.113066 -0.000163009
-0.386964 -0.138533 -0.00596181
-0.513551 -0.200714 -0.00405997
-0.525927 -0.136928 -0.00660266
-0.381755 -0.136945 -0.00820155
-0.667153 -0.180938 -0.00383485
-0.533947 -0.203351 -0.00472008
-0.542639 -0.138396 -0.00777173
-0.581423 -0.0219086 -0.00361178
3.35914e-030 1.18537e-031 5.04438e-032
2.79579e-029 6.44874e-031 8.1199e-035
1.31609e-029 4.12222e-031 5.22965e-032
-0.354949 -0.0120358 -0.00460823
-0.339258 -0.0117906 0.00170193
-0.368421 -0.0132357 -0.00145708
-2.68782e-016 -8.57454e-018 -7.33026e-019
-1.28071e-016 -6.3581e-018 -1.89156e-018
-1.08065e-029 -2.95951e-030 5.86818e-030
-0.0716179 -0.456186 0.000889658
-0.0785501 -0.438393 -0.000851959
-0.108328 -0.477595 -0.00211759
-0.0988227 -0.542403 -0.00223641
-0.636867 -0.203157 0.00425155
-0.337012 -0.0943997 0.011895
-0.514026 -0.260469 0.000663301
-0.380097 -0.213535 0.012746
-0.597342 -0.295905 0.00550947
-0.519709 -0.159135 0.0162889
-0.465036 -0.242226 0.0131253
-0.727654 -0.0167449 0.000826376
-3.63677e-017 -2.39257e-019 2.33688e-020
-0.731222 -0.012264 -0.000156748
-0.490678 -0.0163964 0.00146548
-2.58917e-029 -3.83178e-030 6.5688e-030
-0.500306 -0.0101912 0.00447635
-0.447751 -0.0125387 0.00260944
-0.851514 -0.0199352 0.000838028
-0.562393 -0.00801264 0.00189581
5.407e-030 1.81957e-031 9.81319e-032
-0.357639 -0.0153745 -0.00261457
-8.61708e-017 -3.43906e-018 3.96683e-019
-1.17408e-016 -4.57966e-018 -1.50752e-018
-1.00354 -0.0503147 -0.00147724
-1.10154 -0.0385867 -0.000301691
-0.955948 -0.0331601 -0.000559384
-0.892859 -0.0270974 -0.000979614
-1.11179 -0.0479112 -0.000260421
-1.01608 -0.03058 0.000584203
-1.06293 -0.0288442 0.00111828
1.86567e-017 -2.88155e-019 -1.46152e-019
-4.29065e-029 2.57725e-031 2.24918e-031
-1.62612e-029 7.26581e-032 5.18544e-032
0.394449 -0.00250705 -0.000682469
-2.86053e-017 4.45441e-019 6.16192e-020
1.21792e-029 -5.19046e-030 1.53986e-029
0.265702 -0.00317 -0.00142327
-3.0643e-017 5.89441e-020 4.3129e-019
0.295251 -0.0015536 -0.00236045
0.273539 -0.000414655 -0.00321045
7.05085e-032 -8.08458e-030 -6.57946e-031
-2.88587e-031 -2.56209e-029 -1.70309e-030
7.0313e-033 -2.83296e-030 -1.98331e-031
-0.000374745 0.128262 0.00389963
0.0024967 0.140719 0.0102737
-0.000429213 0.108236 0.00889653
1.08749e-031 -5.23508e-017 4.26449e-030
4.90725e-020 1.89627e-017 7.19221e-019
6.8666e-019 2.17286e-017 2.13454e-018
0.0214487 0.664733 0.00510978
-0.0225985 0.476515 0.00685491
-0.0187656 0.466484 -0.0159962
-0.0232477 0.55267 -0.00323168
-0.00453673 0.695611 0.0058799
-0.00219423 0.700852 -0.00687099
-0.00519658 0.747462 0.000566262
-0.0212656 0.504616 -0.00486611
-0.0228196 0.509123 0.00173279
-0.0215061 0.515897 -0.0107149
0.319286 0.0798899 0.0244073
-2.32732e-029 -7.67151e-031 -1.90744e-031
0.380155 0.00521849 -0.000359379
0.344712 0.0462214 0.00586034
0.22079 0.00159859 -0.00176345
0.352436 0.0114804 0.00256725
0.181914 0.00599581 0.00660753
0.362868 0.0181435 1.84466e-005
0.243233 0.000487936 -0.00247781
-5.26542e-018 -6.70453e-017 8.89135e-019
2.1882e-031 2.41815e-030 6.04286e-033
-0.016065 -0.232483 0.0027219
-0.0156829 -0.247304 0.00230945
-1.03612e-017 -1.40673e-016 1.5951e-018
-0.0379592 -0.257051 0.00097131
-0.0294799 -0.257801 -0.00546233
-1.99874e-017 -7.46408e-017 -1.94955e-018
4.86604e-031 3.07928e-030 2.99793e-032
-0.0716353 -0.280828 -0.00531776
3.58344e-017 1.67732e-016 4.57051e-018
9.5824e-030 -4.64028e-030 -9.24745e-032
-0.050797 -0.284728 -0.00733433
6.5043e-017 3.26716e-016 9.4105e-018
-0.213292 -0.398603 -0.00124502
2.28549e-030 3.50164e-030 1.14614e-032
1.19165e-030 2.22658e-030 1.96093e-032
9.20913e-031 1.76543e-030 2.11493e-032
-0.19019 -0.321673 -0.000502104
-0.198822 -0.357396 -0.00449358
-0.199203 -0.357387 -0.0125183
-1.1705e-016 -1.9888e-016 -1.81283e-018
-6.68782e-016 -1.13477e-015 -3.30346e-017
-5.17593e-016 -9.15678e-016 -2.91133e-017
-1.19485e-031 -1.30243e-030 1.15678e-031
-1.12629e-031 -3.3947e-030 2.32467e-031
-2.16071e-031 -6.53038e-030 3.06533e-031
0.00531366 0.208719 -0.00544153
3.84185e-019 -2.39931e-017 1.06857e-018
1.75626e-020 -2.90144e-018 6.88107e-020
0.000771391 0.0726886 -0.00106583
-6.8666e-022 1.96634e-017 -3.64974e-019
0.00108027 0.0819551 -0.00389441
0.0015689 0.0839647 -0.00289514
-5.00659e-029 -3.18917e-031 1.84256e-031
-5.1361e-029 2.33424e-031 2.11224e-031
0.399013 0.000801041 -0.000494591
2.36014e-017 -1.78685e-019 -1.36165e-019
-2.58816e-017 2.82065e-019 6.11919e-020
0.349909 -0.00140788 -0.00194774
-5.84466e-017 2.85574e-019 7.52752e-019
0.376106 -0.00217777 -0.00133718
0.333339 -0.00346357 0.000556732
5.41154e-020 8.27403e-019 6.46127e-020
0.00939909 0.462514 0.0236736
-2.16427e-030 -6.34323e-029 -2.81683e-030
0.0133713 0.213883 0.0125567
-8.71266e-018 -1.60676e-016 -1.18948e-017
0.0182766 0.36364 0.0166971
0.00851381 0.191797 0.0130985
0.0167087 0.605998 0.0174818
0.0164025 0.410492 0.0185618
0.0947886 -0.184734 0.00646448
0.0879056 -0.10913 -0.0202643
-0.108415 -0.368037 0.00550239
-0.0791745 -0.241739 -0.0125625
0.0760579 -0.186478 -0.00877342
0.0123366 -0.355508 -0.0204215
0.0120436 -0.237427 -0.00680518
0.0256754 -0.237021 -0.0100176
0.0296293 -0.187754 -0.0152439
-0.070816 -0.329884 -0.0074186
-0.00136407 0.459882 0.0256348
0.0072061 0.479549 0.0243448
0.00795014 0.255596 0.0148489
0.0100354 0.611784 0.0185352
0.00039743 0.430744 -0.0149133
-0.0117898 0.506997 -0.0068885
-0.0101558 0.289048 -0.0131465
-0.00063118 0.449322 -0.0200272
-0.00518899 0.486211 -0.0122193
-0.00564858 0.383705 -0.0147565
-0.000486973 0.436172 -0.0176071
-0.011649 0.406412 -0.0126058
-0.00696374 0.500898 -0.0142836
-0.00700846 0.380073 -0.016398
1.99392e-017 4.11307e-017 3.4167e-018
5.42704e-017 1.7613e-018 -2.03827e-018
0.357724 0.363001 -0.00680808
0.272068 0.109309 -0.0111474
1.2558e-029 -7.66837e-019 6.84906e-030
0.247899 0.272717 -0.0125678
0.192359 0.104146 -0.0153513
0.267391 0.150598 -0.0194726
0.213541 0.0562841 -0.0148999
0.336874 0.230398 -0.00973034
8.02654e-019 1.99978e-017 1.93602e-018
0.00227203 0.287491 0.0157604
1.52879e-031 -1.68113e-029 -8.07748e-031
-0.00206638 0.227809 0.00772309
0.00237542 0.116904 0.00829961
5.11562e-019 3.15225e-017 6.43986e-018
0.000952569 0.113445 0.00481299
0.000772418 0.12258 0.0076067
-4.33854e-005 0.256106 0.0107746
0.000101216 0.0929812 0.00321133
1.10528e-030 6.69655e-030 -2.86824e-032
-0.0556571 -0.489136 -0.00142649
8.00032e-031 2.14011e-029 -2.92685e-031
1.68623e-030 1.00302e-029 4.16618e-032
-0.0534428 -0.42934 0.00320112
-6.57292e-017 -7.07064e-016 7.74128e-018
1.17708e-029 -6.54819e-030 8.59827e-030
-0.032059 -0.435632 0.00287812
-0.0507324 -0.42335 -0.0093312
-5.45577e-017 -6.09884e-016 -5.69751e-018
0.421969 -6.81047e-005 -8.20108e-005
-1.82914e-029 4.75122e-032 -5.57205e-033
-1.90022e-029 5.16542e-032 2.77304e-032
-3.20722e-029 3.21272e-032 5.51494e-032
0.316306 5.89198e-005 -0.000126596
0.316965 -0.000109662 -0.000800402
0.310039 1.06539e-005 -0.000649664
-1.87533e-016 1.82254e-030 -2.79604e-031
-7.32128e-017 1.97592e-030 -5.68292e-031
1.23238e-029 -3.76724e-021 -8.1722e-020
0.164568 0.529747 -0.0185399
-0.00997737 0.747171 0.0159743
-0.0135973 0.6041 -0.0374535
0.0328463 0.641928 0.0151737
0.0806685 0.708239 -0.00666636
0.0571951 0.599974 -0.0305007
0.115309 0.639262 -0.0119327
-0.0162914 0.754053 -0.0139513
0.0495562 0.746739 0.0131178
0.0374959 0.738951 -0.0178888
-6.68469e-029 1.25963e-031 -2.18719e-033
-3.99661e-029 1.30468e-031 1.20959e-031
-4.91028e-029 3.24055e-031 -4.92565e-032
0.391945 -0.00282214 0.000269832
1.82283e-017 -1.61289e-021 -1.16556e-019
1.79596e-017 -1.0253e-020 -1.1423e-021
0.329691 0.000215742 -0.00172674
8.43452e-019 1.48731e-029 4.62813e-031
0.30059 -0.000362625 -0.000915396
0.337622 -0.0018959 0.00032881
8.5818e-030 5.12121e-030 -3.49269e-032
-0.366302 -0.221348 -0.00439946
3.03883e-030 1.78848e-030 -1.23477e-032
-0.297118 -0.189062 0.00315425
-0.286529 -0.145912 0.0056506
7.14986e-016 4.80587e-016 -1.15413e-017
-0.426873 -0.218458 -0.00354606
-0.270898 -0.180304 0.000858493
-0.282792 -0.151969 0.00335909
-0.747914 -4.96224e-005 0.00466218
1.64265e-028 6.90301e-032 -1.40073e-031
1.27335e-029 -7.1654e-032 -2.37927e-031
-0.755648 0.00348007 0.00240814
-0.527781 -0.000249702 -0.000182468
-0.487774 -0.00150393 0.00371584
-0.834921 0.0025817 0.00149895
-2.18075e-029 4.48584e-031 8.8904e-031
-0.448135 0.00022716 -0.00109198
-0.484142 0.00322282 0.000682366
-3.26777e-029 3.37223e-031 1.46444e-031
-1.21898e-029 1.40751e-031 8.98269e-032
-1.87176e-029 -3.84555e-031 2.65563e-032
-4.48739e-017 1.22775e-018 2.44304e-020
-1.1471e-018 1.2222e-020 2.23202e-020
0.273627 -0.00317552 0.000533315
-1.59233e-017 1.94362e-019 3.97371e-019
0.255231 -0.00348428 -0.000897445
0.260224 0.00212193 -0.00740216
-6.97709e-029 7.97393e-031 -3.79184e-032
0.335577 -0.00415287 -0.000184706
0.288819 -0.00531982 0.000433241
0.306545 -0.00438488 0.000547308
0.451179 -0.00390266 -0.000857237
0.463241 -0.00373061 -0.000207359
0.402096 -0.00365778 -0.000407447
-1.56754e-029 4.55516e-032 2.342e-033
-2.93175e-029 3.57172e-031 4.93462e-033
5.28221e-017 -1.692e-018 -1.91126e-019
6.15967e-017 -1.9089e-018 -6.30597e-019
0.254966 -0.00416058 -0.000440536
4.1253e-018 -1.19203e-019 -6.29677e-020
0.261617 -0.00334867 -0.00427
-5.41297e-029 8.58165e-032 2.10969e-031
0.391167 0.000512765 -0.000554583
-3.62958e-029 4.49311e-032 6.4517e-032
0.262164 -0.000676472 -0.000756833
-9.24109e-017 -2.90116e-019 5.71503e-019
0.336321 -0.000175383 -0.00199275
0.271719 0.000921345 -0.000171182
0.416156 -0.000999849 -0.000269699
0.286537 0.000591427 -0.0014283
-1.48937e-029 9.71498e-032 -1.2798e-031
-4.30584e-029 9.03958e-032 -3.1873e-031
-5.00636e-029 2.87953e-031 -2.37572e-031
3.26325e-017 -5.45928e-019 1.06597e-018
-3.50618e-017 6.81356e-019 -9.64618e-019
0.268619 -0.00348103 0.00738077
-2.26993e-017 4.11686e-019 -4.40432e-019
0.276799 -0.00317391 0.0046906
0.276083 -0.0041117 0.00285649
4.81473e-031 -6.80215e-030 -3.5297e-032
-0.151342 0.0891614 -0.0094071
5.42778e-031 -1.65686e-030 4.79351e-031
0.0806127 0.20041 -0.00437228
-0.0371294 0.051677 -0.000657616
-7.51068e-019 4.22034e-019 -1.10667e-018
0.0292352 0.112463 0.00204958
-0.0429378 -0.00282988 -0.00630806
-0.0472825 0.150258 -0.00329425
0.0240473 0.0378218 -0.00572897
-5.72683e-030 -1.78211e-030 -4.57995e-031
-4.65741e-029 -4.47084e-030 -5.82721e-032
-7.26813e-030 -1.09569e-029 2.82304e-031
0.186753 0.0233759 0.0225655
0.209359 0.0419432 0.00998673
0.20963 0.0987765 0.0190772
2.87253e-030 9.44759e-030 -5.43346e-030
4.70341e-017 2.50842e-017 3.04536e-018
-5.71811e-017 -2.2219e-017 -3.71738e-018
-1.92082e-029 2.50908e-031 -1.41018e-032
-1.30555e-017 4.27207e-019 3.12504e-020
5.03642e-017 -1.50182e-018 -7.8892e-019
0.283074 -0.00461639 -0.00057206
-0.132188 -0.429755 -0.00171794
2.74051e-030 7.22508e-030 5.14866e-032
-0.18574 -0.409145 -0.00126283
5.76902e-030 1.72003e-029 7.96137e-032
-0.12342 -0.360486 0.00165531
-0.170364 -0.441106 -0.00416324
-0.10789 -0.345566 -1.57643e-007
-0.154432 -0.379856 -0.00876971
2.33748e-017 6.50955e-017 1.63211e-018
-0.129173 -0.355886 -0.00517948
-0.279387 -0.456478 0.00147761
-0.266685 -0.581107 -0.000137367
-0.147854 -0.33964 0.0143529
-0.201887 -0.437768 0.00773387
-0.282939 -0.544431 -0.00454785
-0.202917 -0.439947 0.0123584
-0.214823 -0.508188 0.000772634
-0.160258 -0.369053 0.0270365
-0.223713 -0.521705 0.00545844
0.390723 0.0012932 3.50838e-005
-8.40168e-029 -1.17282e-031 2.52623e-031
-3.51204e-029 -1.25194e-031 1.3894e-032
0.40013 0.000499336 -0.00072826
0.274298 0.000828532 0.000204523
0.263672 0.00149891 0.00144554
0.411761 0.00126833 -0.000614613
3.85121e-029 -9.35415e-031 -1.23925e-029
0.35561 -0.000462451 -0.00108649
0.317469 -5.08415e-005 -7.43657e-005
-1.56567e-029 6.44786e-032 -1.47236e-032
-4.05268e-029 7.79136e-032 -1.04755e-031
-7.47213e-029 5.71197e-032 -3.38494e-032
1.18807e-029 6.67717e-030 1.18825e-029
0.271358 -0.000502356 0.00117836
6.17716e-017 1.77629e-020 3.60299e-019
0.291478 -0.000638708 0.00169314
-2.78548e-017 -2.75734e-020 -6.31491e-020
0.264656 -0.000653745 0.000456481
-2.2867e-029 1.96268e-032 -1.47843e-032
-4.39361e-029 1.59502e-032 -9.52831e-032
0.420405 -0.000277284 0.000136596
-7.53261e-029 8.98401e-032 -1.76125e-031
7.7586e-017 -3.86054e-020 3.258e-019
0.348158 -0.000363132 0.000554804
-6.14296e-017 1.87688e-019 -1.89499e-019
0.350891 -1.87505e-005 0.00156626
2.8704e-017 7.94302e-020 1.72769e-019
0.333763 -0.00121677 0.000968658
0.387531 0.00140608 -0.000295403
-8.37134e-029 -5.56218e-032 1.44901e-031
0.457417 5.99777e-005 -4.9397e-005
0.306092 0.000576104 -0.000971766
0.398512 0.00159012 0.000402192
0.33213 -0.00062888 0.000725344
0.462487 0.000298643 -0.000851428
0.337655 0.000916853 -0.000338602
1.25623e-029 2.31854e-031 -1.45425e-032
-0.356235 -0.00949383 0.00358619
2.0037e-016 5.11351e-018 -1.15709e-018
-0.466167 -0.0083781 0.00320688
-0.692007 -0.0169705 -6.85851e-005
5.40044e-031 -2.13369e-029 1.29201e-030
1.44234e-031 -4.14875e-029 2.42438e-030
-0.00373947 0.229569 -0.0153999
-0.000659708 0.221043 -0.0150708
-0.00517446 0.137453 -0.00824504
3.58809e-019 -1.94899e-017 1.59228e-018
-0.00288759 0.169164 -0.0115709
0.000490723 0.526387 0.00499884
0.0124638 0.31679 0.00879987
0.00394284 0.483718 -1.38916e-005
0.00013922 0.426329 0.00636706
0.00879364 0.453248 0.0082961
0.00273406 0.506323 0.00193111
0.000492331 0.479532 0.00634567
0.00811091 0.424576 0.00417457
0.0057232 0.397133 0.00812588
0.00187698 0.475532 0.00422488
0.0079571 0.3326 0.0130664
0.00173701 0.439509 0.0125971
0.00114693 0.36063 0.0115925
7.70573e-029 1.63586e-030 1.29625e-031
1.27372e-028 3.18118e-030 -2.1539e-032
2.37639e-029 2.70897e-031 1.54557e-032
-0.591212 -0.00928761 -0.00240357
-0.563394 -0.0125094 -0.00207177
-0.566545 -0.00935705 -0.00201865
-1.32359e-016 -5.98495e-019 -1.75293e-019
-1.60519e-016 -3.04615e-018 -9.98301e-019
-1.54342e-016 -3.76153e-018 -9.24626e-019
9.2925e-031 2.74997e-030 -3.88469e-032
-0.155632 -0.392193 0.000825938
4.52917e-030 1.76393e-029 -9.30602e-032
1.79094e-030 7.0618e-030 -5.36581e-032
-0.129269 -0.395705 0.00843301