# vtk DataFile Version 2.0 
output.vtk, Created by Freefem++, via gregorio
ASCII
DATASET UNSTRUCTURED_GRID
POINTS 7451 double
-3.79965 2.23652 0.040848
-4.13429 2.05574 0.276253
-4.09122 2.24524 0.070091
-4.01836 2.27766 0.330071
-3.96697 2.14613 0.158551
-3.94543 2.24088 0.0554695
-3.90901 2.25709 0.185459
-4.11275 2.15049 0.173172
-4.07633 2.1667 0.303162
-4.05479 2.26145 0.200081
-4.81817 0.732763 -0.840268
-4.76136 0.37264 -0.736193
-5.12328 0.495929 -0.550642
-4.73872 0.559667 -0.434419
-4.78977 0.552702 -0.788231
-4.97072 0.614346 -0.695455
-4.77845 0.646215 -0.637344
-4.94232 0.434285 -0.643417
-4.75004 0.466153 -0.585306
-4.931 0.527798 -0.49253
-7.58244 -0.891248 -0.453516
-8 -0.559587 0.124298
-7.26059 -0.264226 0.250847
-7.58828 -0.999993 0.00381
-7.79122 -0.725418 -0.164609
-7.42152 -0.577737 -0.101334
-7.58536 -0.94562 -0.224853
-7.6303 -0.411906 0.187573
-7.79414 -0.77979 0.064054
-7.42444 -0.632109 0.127328
-5.46564 0.048234 0.998836
-5.51396 -0.351144 0.936321
-5.02851 -0.125769 0.598961
-5.56665 -0.148801 0.504295
-5.4898 -0.151455 0.967578
-5.24708 -0.0387675 0.798898
-5.51614 -0.0502835 0.751565
-5.27124 -0.238457 0.767641
-5.5403 -0.249972 0.720308
-5.29758 -0.137285 0.551628
-4.20269 -2.80441 0.102764
-3.63085 -2.57461 -0.287529
-4.13183 -2.29387 0.255347
-4.14432 -2.47254 -0.273935
-3.91677 -2.68951 -0.0923825
-4.16726 -2.54914 0.179055
-4.1735 -2.63848 -0.0855855
-3.88134 -2.43424 -0.016091
-3.88759 -2.52358 -0.280732
-4.13807 -2.38321 -0.009294
-6.25062 -0.085247 0.575431
-6.51584 -0.423084 -0.15939
-6.46019 0.447486 0.293263
-6.75561 -0.174737 0.413139
-6.38323 -0.254165 0.20802
-6.35541 0.181119 0.434347
-6.88822 -0.343655 0.0457285
-6.86039 0.09163 0.272055
-6.48801 0.012201 0.0669365
-4.88162 0.371746 0.655425
-4.51246 -0.112716 0.623981
-4.65723 0.09269 0.995695
-4.69704 0.129515 0.639703
-4.95507 0.122989 0.627193
-4.76942 0.232218 0.82556
-4.77049 -0.119243 0.611471
-4.58484 -0.010013 0.809838
-4.84287 -0.0165395 0.797328
-3.75099 1.20677 0.090288
-3.64118 0.745776 0.266863
-4.09568 0.790235 0.315934
-3.78936 1.07086 0.69071
-3.69609 0.976272 0.178575
-3.92333 0.998502 0.203111
-3.77017 1.13882 0.390499
-3.86843 0.768006 0.291399
-3.71527 0.908319 0.478787
-3.94252 0.930549 0.503322
-2.18572 0.40145 0.915881
-1.75478 0.245881 0.526965
-1.94554 -0.013967 0.999902
-1.76886 0.356252 0.93439
-1.97025 0.323665 0.721423
-2.06563 0.193741 0.957891
-1.97729 0.378851 0.925135
-1.85016 0.115957 0.763433
-1.76182 0.301067 0.730678
-1.8572 0.171143 0.967146
-5.06116 0.824959 0.710182
-4.88551 0.773989 0.80113
-4.92155 0.772883 0.437198
-5.01596 0.602336 0.857802
-4.97333 0.799474 0.755656
-4.99135 0.798921 0.57369
-5.03856 0.713647 0.783992
-4.90353 0.773436 0.619164
-4.95074 0.688163 0.829466
-4.96876 0.687609 0.6475
-2.34262 2.51752 0.051733
-2.4672 2.85727 -0.311185
-2.29554 2.81673 0.086134
-2.65762 2.74748 0.16058
-2.40491 2.6874 -0.129726
-2.31908 2.66712 0.0689335
-2.50012 2.6325 0.106157
-2.38137 2.837 -0.112526
-2.56241 2.80238 -0.0753025
-2.47658 2.7821 0.123357
-3.50303 -3.76846 -0.636668
-3.49422 -3.29308 -1.15018
-3.31427 -3.71149 -1.25136
-2.90724 -3.34218 -0.858121
-3.49863 -3.53077 -0.893424
-3.40865 -3.73997 -0.944014
-3.20514 -3.55532 -0.747394
-3.40425 -3.50228 -1.20077
-3.20073 -3.31763 -1.00415
-3.11076 -3.52683 -1.05474
-4.0054 2.49156 -0.125899
-3.5956 2.50054 -0.194198
-3.83412 2.54803 0.0159
-3.8005 2.49605 -0.160049
-3.90253 2.36404 -0.0425255
-3.91976 2.5198 -0.0549995
-3.69763 2.36853 -0.076675
-3.71486 2.52428 -0.089149
-3.81689 2.39228 0.028374
-3.73452 -3.68531 -1.05781
-3.52439 -3.6984 -1.15459
-3.61437 -3.4892 -1.104
-3.61877 -3.72688 -0.84724
-6.37864 0.944563 0.328331
-6.25891 0.813305 0.581838
-6.65332 0.772267 0.635298
-6.31878 0.878934 0.455085
-6.41941 0.696025 0.310797
-6.51598 0.858415 0.481815
-6.35955 0.630395 0.43755
-6.45612 0.792786 0.608568
-6.55675 0.609877 0.46428
1.62066 -0.841518 -0.540229
1.89324 0.238579 -0.195511
2.01627 -0.690819 -0.723027
2.25185 -0.211859 0.261412
1.75695 -0.30147 -0.36787
1.81846 -0.766169 -0.631628
1.93625 -0.526689 -0.139408
1.95475 -0.22612 -0.459269
2.07254 0.01336 0.0329505
2.13406 -0.451339 -0.230807
-2.56949 2.06853 0.305158
-2.91403 1.60744 0.564909
-3.02709 2.08175 0.021586
-2.87501 2.07662 0.630995
-2.74176 1.83799 0.435033
-2.79829 2.07514 0.163372
-2.72225 2.07258 0.468077
-2.97056 1.8446 0.293247
-2.89452 1.84203 0.597952
-2.95105 2.07919 0.32629
-5.39985 0.358755 0.933432
-5.34934 0.453264 0.543553
-5.56264 0.558471 0.829524
-5.70805 0.297641 0.954678
-5.37459 0.40601 0.738492
-5.48124 0.458613 0.881478
-5.55395 0.328198 0.944055
-5.45599 0.505868 0.686538
-5.52869 0.375452 0.749116
-5.63535 0.428056 0.892101
-4.17913 0.323834 -0.696515
-4.36183 0.516245 -0.417662
-4.60784 0.019305 -0.528365
-4.46586 0.364911 -0.72315
-4.27048 0.42004 -0.557088
-4.39349 0.17157 -0.61244
-4.3225 0.344372 -0.709832
-4.48483 0.267775 -0.473013
-4.41384 0.440578 -0.570406
-4.53685 0.192108 -0.625757
-5.9377 0.438799 -0.558905
-5.87927 0.529091 -0.848565
-6.25926 0.555743 -0.831354
-6.07929 0.245277 -0.969453
-5.90849 0.483945 -0.703735
-6.09848 0.497271 -0.695129
-6.00849 0.342038 -0.764179
-6.06927 0.542417 -0.839959
-5.97928 0.387184 -0.909009
-6.16928 0.40051 -0.900404
-3.64743 2.72944 0.180305
-3.74077 2.63873 0.0981025
-3.72354 2.48298 0.110576
-3.62151 2.61499 -0.0069465
-3.98168 0.388062 0.141859
-3.76543 0.320245 0.603448
-3.81143 0.566919 0.204361
-3.70331 0.533011 0.435156
-4.03868 0.589149 0.228897
-3.87356 0.354154 0.372653
-3.93055 0.55524 0.459691
-6.17342 0.027823 -0.593282
-6.59748 0.255766 -0.966739
-6.35964 0.547779 -0.240473
-6.21634 0.291783 -0.712318
-6.42837 0.405755 -0.899047
-6.30945 0.551761 -0.535914
-6.38545 0.141794 -0.78001
-6.26653 0.287801 -0.416878
-6.47856 0.401772 -0.603606
-5.98474 0.742767 -0.66955
-5.96122 0.590783 -0.614227
-6.122 0.649255 -0.750452
-5.93201 0.635929 -0.759057
-5.86659 0.345457 -0.129882
-5.96054 -0.099592 -0.035866
-6.02 0.18664 -0.361582
-6.11312 0.446618 -0.185177
-5.91357 0.122933 -0.082874
-6.06698 -0.0358845 -0.314574
-6.16009 0.224094 -0.13817
-1.10421 0.363269 -0.931684
-0.773878 0.737644 -0.67519
-0.520452 0.269543 -0.962988
-0.384634 0.008888 -0.353445
-0.939043 0.550457 -0.803437
-0.812329 0.316406 -0.947336
-0.74442 0.186079 -0.642564
-0.647165 0.503594 -0.819089
-0.579256 0.373266 -0.514317
-0.452543 0.139215 -0.658216
-2.85287 -3.00249 -1.21636
-3.23054 -2.92385 -1.196
-3.06719 -3.3306 -1.25351
-2.88006 -3.17233 -1.03724
-3.06889 -3.13301 -1.02706
-2.98722 -3.33639 -1.05581
-3.0417 -2.96317 -1.20618
-2.96003 -3.16654 -1.23493
-3.14886 -3.12722 -1.22475
-3.38618 -2.05134 -0.098565
-2.37808 -2.56123 -0.134541
-2.49252 -2.47812 0.422472
-2.41131 -1.89586 0.044632
-2.88213 -2.30628 -0.116553
-2.93935 -2.26473 0.161954
-2.89875 -1.9736 -0.0269665
-2.4353 -2.51967 0.143966
-2.39469 -2.22855 -0.0449545
-2.45192 -2.18699 0.233552
-1.85713 -0.413967 0.42138
-1.65927 -0.390905 0.920431
-1.2503 -0.077569 0.384148
-1.80595 -0.084043 0.474172
-1.70702 -0.072512 0.723698
-1.50254 0.084156 0.455557
-1.7582 -0.402436 0.670905
-1.55371 -0.245768 0.402764
-1.45478 -0.234237 0.652289
-2.09043 2.55218 0.167395
-2.0659 2.66009 -0.048555
-2.19298 2.68445 0.126765
-2.18072 2.73841 0.0187895
-2.07816 2.60614 0.05942
-2.21652 2.53485 0.109564
-2.20426 2.58881 0.001589
-4.01665 2.44382 0.136481
-3.97233 2.67361 0.084512
-3.92539 2.49592 0.0761905
-3.99449 2.55872 0.110496
-4.01103 2.46769 0.005291
-3.90323 2.61082 0.050206
-3.98887 2.58259 -0.0206935
-3.92754 1.80484 -0.220103
-4.28096 1.83407 -0.225431
-4.13592 1.88983 -0.461486
-4.146 2.03152 -0.278406
-4.10425 1.81945 -0.222767
-4.03173 1.84734 -0.340795
-4.03677 1.91818 -0.249254
-4.20844 1.86195 -0.343458
-4.21348 1.9328 -0.251918
-4.14096 1.96068 -0.369946
-4.04038 -5 0.949212
-3.62468 -5 1.26221
-3.84559 -4.54287 1.07336
-3.71487 -5 0.728948
-3.83253 -5 1.10571
-3.94299 -4.77144 1.01129
-3.87763 -5 0.83908
-3.73513 -4.77144 1.16779
-3.66977 -5 0.99558
-3.78023 -4.77144 0.901156
-1.37334 0.812082 -0.583544
-0.975724 0.961208 -0.275823
-1.19336 -0.166381 -0.273753
-1.17453 0.886645 -0.429683
-1.07361 0.774863 -0.629367
-1.28335 0.32285 -0.428648
-0.874801 0.849426 -0.475506
-1.08454 0.397413 -0.274788
-0.983618 0.285631 -0.474471
-3.83515 -1.82017 -0.741539
-3.34976 -1.58414 -0.592596
-3.50394 -2.07825 -1.02313
-3.59245 -1.70215 -0.667067
-3.66955 -1.94921 -0.882335
-3.61067 -1.93575 -0.420052
-3.42685 -1.83119 -0.807863
-3.36797 -1.81774 -0.345581
-3.44506 -2.06479 -0.560848
-2.72946 0.769161 0.094533
-2.75119 0.681139 -0.326037
-2.98528 1.02631 -0.281501
-3.08113 0.734324 -0.34324
-2.74032 0.72515 -0.115752
-2.85737 0.897737 -0.093484
-2.90529 0.751742 -0.124353
-2.86823 0.853726 -0.303769
-2.91616 0.707731 -0.334639
-3.03321 0.880319 -0.31237
-2.94023 -2.47675 -0.674772
-3.14499 -2.03044 -0.633684
-3.22209 -2.2775 -0.848951
-3.16321 -2.26404 -0.386669
-3.03914 -4.25341 0.579285
-2.64287 -3.80807 0.20828
-2.47531 -4.18593 0.714333
-2.97264 -3.41482 0.618231
-2.84101 -4.03074 0.393783
-2.75723 -4.21967 0.646809
-3.00589 -3.83412 0.598758
-2.55909 -3.997 0.461307
-2.80776 -3.61144 0.413255
-2.72397 -3.80037 0.666282
-2.39684 -0.595487 -0.803365
-1.98884 -0.54749 -0.836812
-2.24172 -0.466498 -0.098067
-2.21295 -0.01831 -0.514797
-2.19284 -0.571489 -0.820088
-2.31928 -0.530992 -0.450716
-2.3049 -0.306899 -0.659081
-2.11528 -0.506994 -0.46744
-2.1009 -0.2829 -0.675804
-2.22734 -0.242404 -0.306432
-3.36239 -4.55484 -1.31864
-3.11171 -4.25429 -0.873787
-2.86199 -4.55394 -1.36046
-2.79118 -5 -0.96439
-3.23705 -4.40456 -1.09621
-3.11219 -4.55439 -1.33955
-3.07678 -4.77742 -1.14151
-2.98685 -4.40411 -1.11712
-2.95144 -4.62714 -0.919088
-2.82658 -4.77697 -1.16243
-3.88203 2.65205 -0.416886
-3.48121 2.84727 -0.340672
-3.82273 3 -0.474998
-3.72541 2.76868 -0.627028
-3.68162 2.74966 -0.378779
-3.85238 2.82603 -0.445942
-3.80372 2.71037 -0.521957
-3.65197 2.92364 -0.407835
-3.60331 2.80798 -0.48385
-3.77407 2.88434 -0.551013
[...]
POINT_DATA 7451
 
FIELD FieldData 2
velocity 3 7451 double
-0.122514 -0.347485 0.00961818
1.56371e-030 3.53107e-030 -1.96303e-031
4.53333e-031 1.23625e-030 -5.79966e-032
1.30803e-030 3.51527e-030 -1.79411e-031
-0.0834479 -0.20377 0.0115265
-0.0726432 -0.199835 0.00932489
-0.0803629 -0.232529 0.0123777
-1.87513e-018 -4.54502e-018 3.17201e-019
5.67362e-018 1.41312e-017 -1.11465e-018
1.90724e-029 -8.18626e-030 -4.44693e-030
9.04627e-030 3.01188e-030 -2.06495e-031
-0.411571 -0.109278 0.00111033
-0.62765 -0.142601 0.00756315
-0.707699 -0.230884 0.00628869
-0.227387 -0.0769602 0.00708976
-0.306776 -0.0931913 0.00992222
-0.406046 -0.146934 0.00946913
-0.535882 -0.134328 0.00706408
-0.593671 -0.174596 0.00542148
-0.677245 -0.192693 0.00856607
9.71182e-029 -3.00915e-031 2.79897e-032
-0.849056 0.00733348 -0.00062963
-1.10755 5.1415e-005 -0.000610523
5.60758e-029 -2.26104e-031 5.41202e-032
-0.552958 0.00344699 7.90128e-005
-0.837251 1.46677e-005 -0.00253568
-1.34574e-016 2.51063e-019 -3.15755e-019
-1.00983 0.00129182 -7.89108e-005
-0.480121 0.00635778 -0.000800568
-0.743412 0.00192682 -0.000179
3.30409e-029 3.41613e-030 5.86761e-032
2.17524e-029 1.38863e-030 2.81593e-031
-0.701597 -0.105036 -0.0136931
-0.886819 -0.0624177 -0.00507338
-1.47445e-016 -6.6385e-018 -1.45576e-018
-0.423506 -0.048239 -0.00390309
-0.527284 -0.0335808 -0.00349375
-0.404241 -0.031359 -0.00756092
-0.506395 -0.0232788 -0.00488594
-0.799867 -0.0860288 -0.00846685
-4.25222e-030 -6.50903e-029 2.01886e-030
0.0261376 0.422811 0.00283153
-4.64195e-030 -7.73559e-029 2.54092e-030
-8.15507e-031 -9.68462e-030 5.23315e-033
0.0235621 0.287757 -0.00379556
-5.21384e-017 -5.80723e-016 2.25389e-017
-3.98457e-018 -4.02114e-017 5.79739e-019
0.0267082 0.341494 -0.00583378
0.0219963 0.251526 0.000484218
-5.73053e-017 -6.13668e-016 1.08792e-017
-0.832716 -0.0163705 -0.00239551
-1.00583 -0.00960334 -0.0022564
-0.90542 -0.0130049 -0.000903139
-1.01298 -0.00261503 -0.000991085
-1.13492 -0.0173462 -0.00318785
-0.987325 -0.0172463 -0.00228547
-1.11879 -0.0046828 -0.00387585
-1.17295 -0.00250216 -0.000472439
-1.27333 -0.0170259 -0.00154906
-0.564629 -0.186683 0.00455431
-0.57106 -0.101838 -0.0201147
1.88008e-029 5.14401e-030 1.98239e-031
-0.624815 -0.165458 -0.00819277
-0.690339 -0.15464 -0.00384091
-0.310032 -0.108836 0.00315823
-0.636066 -0.112088 -0.0188007
-0.342544 -0.0929668 -0.0102145
-0.390591 -0.0841012 -0.00823901
-0.430811 -0.454985 -0.0227209
-0.46739 -0.2664 -0.0506425
-0.606924 -0.337366 -0.0150392
-0.239841 -0.301145 -0.000723192
-0.465886 -0.38671 -0.0396288
-0.520489 -0.399037 -0.0203701
-0.394553 -0.418526 -0.0164741
-0.554844 -0.310817 -0.0327117
-0.38746 -0.328459 -0.0247897
-0.423751 -0.335333 -0.00794727
-1.72457e-029 -6.53089e-030 1.1788e-030
0.349001 0.0528214 -0.00666805
-2.07052e-029 -6.2378e-030 -3.74801e-031
-4.37848e-030 -2.34491e-031 2.7486e-032
0.188338 0.0300688 -0.00629034
6.03477e-017 5.90594e-018 2.25136e-018
3.22437e-018 2.29181e-019 -3.02563e-020
0.213422 0.0177031 -0.00144242
0.19919 0.0114835 0.000957338
-6.93096e-017 -8.08028e-019 -8.29268e-019
2.50064e-017 1.1621e-017 -6.97062e-019
2.76969e-030 1.26284e-030 -5.29261e-032
-0.509239 -0.210804 0.00886505
2.95864e-030 1.20942e-030 -5.51798e-032
1.25088e-017 6.26578e-018 -3.88601e-019
-0.286864 -0.126849 0.00666388
9.84203e-017 6.95418e-017 -3.55208e-018
-0.287006 -0.138469 0.00768657
1.52485e-016 7.79869e-017 -3.38811e-018
-0.316556 -0.135147 0.00576721
-0.0332026 -0.236355 -0.0137283
-0.0204171 -0.25151 -0.00890443
-0.0125879 -0.235816 -0.00707809
-0.0523552 -0.498652 -0.0155004
-0.0289895 -0.266459 -0.0113053
-0.0231541 -0.237183 -0.0105822
-0.0456098 -0.378194 -0.0165757
-0.0187847 -0.268964 -0.00957341
-0.0381585 -0.394423 -0.0125832
-0.0321326 -0.382751 -0.0119256
0.0112043 0.271035 0.00813
-6.4799e-031 -2.09005e-029 -1.05641e-030
-3.23844e-031 -1.60274e-029 -9.04181e-031
-0.00172783 0.227896 0.012933
0.00637206 0.145707 0.00812282
0.00549651 0.142959 0.00814133
0.00468418 0.277305 0.0117423
2.21703e-029 2.20671e-030 6.44077e-029
0.00215465 0.136481 0.00924735
0.00108655 0.117658 0.00832718
9.65846e-031 3.55725e-030 -1.00943e-031
-0.0906893 -0.371088 0.0039332
-0.0485373 -0.229517 0.00502662
-0.0581038 -0.233312 0.00632202
-0.0603573 -0.194201 0.00623488
-0.0276428 -0.117247 0.00343433
-0.110493 -0.371833 0.00589697
-0.0761489 -0.329566 0.00571463
-0.0824867 -0.287119 0.00764086
-2.61812e-031 -4.69707e-030 -2.30488e-031
-3.61478e-018 -6.9771e-017 -5.18419e-018
3.53999e-018 6.23653e-017 4.54009e-018
0.00763223 0.137834 0.00671802
1.03065e-029 1.76135e-031 1.92134e-033
1.3655e-029 2.28252e-031 1.60323e-032
1.78145e-029 1.89603e-031 4.34158e-032
6.96076e-017 1.54003e-018 8.39102e-020
-0.521287 -0.0128335 -0.000494397
-4.97656e-030 -4.513e-029 -2.27957e-029
-0.511765 -0.00650876 -0.000656761
-1.81881e-017 8.21173e-019 1.71987e-019
-0.520827 -0.0058739 -0.00102636
-1.50396e-028 3.78948e-031 -7.26195e-032
0.486066 0.000581019 0.000721692
-5.56124e-029 3.76929e-032 -1.30967e-031
0.473551 -0.00219546 0.00130797
0.41668 -0.00126045 0.000282983
-6.68261e-017 3.35622e-020 -3.04906e-019
0.376018 -0.000216668 0.00136229
0.394186 0.000709591 0.000858071
0.536338 -0.00104204 0.00163561
0.397571 -0.00115067 0.001741
-0.0805499 -0.330598 -0.0293819
-0.119094 -0.34594 -0.0348783
-0.171174 -0.533813 -0.026501
-0.0913799 -0.416542 -0.0219561
-0.107371 -0.365682 -0.0353052
-0.135012 -0.48275 -0.0342657
-0.0941194 -0.404068 -0.0303382
-0.178925 -0.519978 -0.0386051
-0.108781 -0.388577 -0.0289592
-0.152631 -0.553463 -0.032049
3.11732e-030 4.1157e-031 -6.81789e-032
-0.669794 -0.123954 0.00999793
6.7414e-030 5.40381e-031 -1.18052e-031
2.99294e-029 1.99832e-030 -1.53029e-031
-0.377365 -0.0499613 0.0102583
-9.80633e-017 -7.74808e-018 3.40268e-018
1.36447e-016 6.15721e-018 -3.94352e-018
-0.364932 -0.0442049 0.00887697
-0.380882 -0.0311197 0.00697614
-2.2247e-017 -6.99174e-019 7.74454e-019
-0.404273 -0.101691 -0.0145494
-0.687812 -0.233492 -0.0113461
-0.729914 -0.112837 -0.00682794
-0.409562 -0.118024 -0.00508193
-0.567868 -0.169934 -0.0140508
-0.583644 -0.118245 -0.0114824
-0.411523 -0.114142 -0.00958729
-0.744497 -0.174992 -0.0115203
-0.579537 -0.181593 -0.00655182
-0.59453 -0.127442 -0.00633387
-0.62821 -0.0135599 0.00196309
3.35387e-030 3.92427e-032 -7.07407e-033
2.98766e-029 3.63455e-031 -1.54214e-031
1.37556e-029 1.8474e-031 -2.81262e-032
-0.338521 -0.00335094 0.00131391
-0.336059 -0.00628881 0.00284714
-0.366662 -0.00423051 0.00204054
-2.40124e-016 -1.90501e-018 2.11798e-018
-1.15763e-016 -2.37251e-019 1.05378e-018
-1.10496e-029 -2.14137e-029 4.80728e-029
-0.0588377 -0.397365 0.00550699
-0.0557846 -0.320679 0.00568267
-0.0867341 -0.369458 0.0067588
-0.079428 -0.412843 0.00418022
-0.742806 -0.155403 -0.044573
-0.409778 -0.0373103 -0.0216514
-0.605333 -0.206436 -0.050402
-0.464842 -0.145613 -0.0410167
-0.696059 -0.264915 -0.0318381
-0.615853 -0.0978025 -0.0379908
-0.548098 -0.210002 -0.0232858
-0.813107 -0.0103198 0.000552925
-3.67449e-017 4.346e-020 8.2981e-020
-0.813479 -0.00910926 0.00353886
-0.508263 -0.00733499 0.00302146
-2.50313e-029 -3.0591e-029 6.03405e-029
-0.50832 -0.00581563 0.00457764
-0.461788 -0.00797261 0.00172059
-0.944542 -0.0126402 0.00307918
-0.592085 -0.00285678 0.00304284
5.42024e-030 9.45233e-032 -8.84159e-033
-0.343111 -0.00643581 0.0020499
-7.74471e-017 -1.26114e-018 1.73883e-018
-1.02282e-016 -8.36788e-019 6.62981e-019
-1.11624 -0.0514635 0.00293518
-1.25101 -0.0418817 -0.0032177
-1.06279 -0.0266348 0.000721966
-0.981189 -0.0224709 0.00353846
-1.24892 -0.0507988 0.000243869
-1.14152 -0.0263095 -0.00144638
-1.19001 -0.0274713 0.00149798
1.9869e-017 -1.52442e-019 -3.14322e-019
-4.90542e-029 4.7031e-031 4.75398e-031
-1.81857e-029 5.43405e-032 9.49053e-032
0.477178 -0.00458275 -0.000864455
-3.05662e-017 2.8088e-019 4.43936e-019
1.35094e-029 -3.24216e-029 9.80074e-029
0.291344 -0.0029391 -0.00292011
-3.149e-017 1.03221e-019 3.20999e-019
0.32601 -0.00364176 -0.0023213
0.294415 9.87672e-005 -0.00200324
7.76842e-032 -7.29402e-030 -5.70183e-031
-3.22748e-031 -2.23967e-029 -1.35003e-030
-5.76128e-033 -2.70191e-030 -2.01912e-031
-0.00125361 0.119956 0.00925723
0.00197235 0.12693 0.0100923
2.84512e-005 0.115694 0.00810701
-7.02843e-019 -6.95566e-017 -5.72122e-018
-8.0211e-020 2.70233e-017 2.41978e-018
-1.27219e-018 -5.71436e-017 2.60521e-018
0.0215778 0.697555 -0.00769781
-0.0252732 0.505565 -0.00186511
-0.0277439 0.719745 -0.0381109
-0.0278724 0.651351 -0.0187176
-0.00719397 0.740678 -0.00499758
-0.0037341 0.898721 -0.0271071
-0.00640317 0.843726 -0.0163652
-0.0278387 0.661873 -0.0168548
-0.0267557 0.580079 -0.00768501
-0.029191 0.714285 -0.0299681
0.36678 0.162449 0.0245353
-2.65796e-029 -1.75179e-030 -1.91965e-031
0.456618 0.0153624 -0.00235512
0.40895 0.106456 -0.000254101
0.246468 0.00799147 -0.000859104
0.422895 0.0335999 -0.00200501
0.195329 0.00549392 0.00924094
0.412784 0.0530377 -0.00113393
0.268354 0.00124993 -0.00303678
-1.95485e-018 -2.71549e-017 -1.22627e-018
1.10581e-031 1.25566e-030 6.15693e-032
-0.00754889 -0.120101 -0.00453084
-0.00807908 -0.11503 -0.00401132
-4.14514e-018 -5.20577e-017 -2.22183e-018
-0.0165996 -0.129681 -0.0075143
-0.0152785 -0.121747 -0.00788048
-7.43303e-018 -3.00752e-017 1.13705e-018
2.84327e-031 1.80459e-030 -3.86574e-032
-0.0312151 -0.133328 0.00427705
1.24971e-017 6.6386e-017 -1.64315e-018
2.04962e-029 -6.7456e-030 -1.21032e-031
-0.0211946 -0.130918 0.00193631
2.18215e-017 1.18489e-016 -2.53782e-018
-0.184056 -0.295343 0.00818198
1.48002e-030 2.0686e-030 -1.16017e-031
6.97361e-031 1.11875e-030 -5.70921e-032
5.23452e-031 9.09978e-031 -4.79522e-032
-0.113018 -0.170098 0.00963672
-0.103239 -0.164969 0.00845258
-0.100153 -0.16982 0.00875998
-5.14971e-017 -7.76821e-017 5.80278e-018
-3.22788e-016 -4.54723e-016 3.81181e-017
-1.97822e-016 -3.32388e-016 2.33086e-017
-1.3498e-031 -4.11895e-030 1.79563e-031
-2.10676e-031 -1.21562e-029 5.72802e-031
-6.44498e-031 -2.06813e-029 1.1504e-030
0.0101831 0.413947 -0.014702
-3.62944e-018 -1.67418e-016 7.93359e-018
-5.8742e-019 -1.89607e-017 1.00044e-018
0.0065833 0.248281 -0.00956607
3.23211e-018 3.61515e-017 -2.05211e-018
0.0061148 0.309565 -0.014412
0.00909561 0.30043 -0.0158162
-5.668e-029 -4.88992e-032 1.27312e-030
-5.9536e-029 3.87368e-031 6.41538e-031
0.480896 -0.0116364 0.000109532
2.52926e-017 3.45928e-020 -6.38386e-019
-2.75131e-017 1.5587e-019 6.21182e-019
0.384119 -0.00318531 -0.00823458
-6.25403e-017 5.42666e-019 6.14357e-019
0.420567 -0.00186116 -0.00595199
0.370566 -0.00554617 -0.00332091
5.9551e-020 8.98791e-019 4.36647e-020
0.00718672 0.400789 0.0161921
-2.18009e-030 -6.06337e-029 -2.09111e-030
0.0082519 0.218979 0.0104997
-8.94881e-018 -7.14783e-017 -9.45877e-018
0.0196061 0.388882 0.00849598
0.00755389 0.18748 0.0123795
0.0148327 0.580056 0.0077985
0.0157869 0.379765 0.0136613
0.0200064 -0.0564931 -0.0515479
0.0191272 -0.0110816 -0.034045
-0.128947 -0.209264 -0.035659
-0.135696 -0.100906 -0.0473923
0.0178149 -0.0446426 -0.0474894
-0.0620542 -0.160162 -0.046922
-0.0629039 -0.103121 -0.0566542
-0.0455746 -0.0933202 -0.0322453
-0.0515192 -0.0538507 -0.0411995
-0.126488 -0.158547 -0.0420838
-0.00171113 0.365629 0.0167979
0.00692312 0.411006 0.0170011
0.00725277 0.226724 0.0136423
0.00907904 0.570962 0.0100573
0.000673335 0.676359 -0.0312102
-0.0159427 0.666886 -0.0178135
-0.0174163 0.545809 -0.0331566
-0.000665095 0.752014 -0.0456224
-0.0082977 0.721124 -0.0249009
-0.0097868 0.667792 -0.0348943
0.000338406 0.715022 -0.0391212
-0.0188516 0.652538 -0.02639
-0.0103483 0.754427 -0.0292138
-0.0129189 0.683135 -0.0406026
1.78282e-017 5.38094e-017 3.74967e-018
5.695e-017 1.41625e-018 9.9318e-020
0.401889 0.439362 -0.0212372
0.302142 0.107081 -0.0260482
-2.79876e-017 -3.03585e-018 4.23675e-029
0.265826 0.292643 -0.014842
0.201732 0.11201 -0.0180112
0.299601 0.167723 -0.0169555
0.231717 0.0572244 -0.0124666
0.385155 0.249781 -0.0292606
8.01304e-019 2.10687e-017 1.62973e-018
0.00198999 0.208816 0.0080684
1.92697e-031 -1.35476e-029 -4.91907e-031
-0.00166356 0.155515 0.00240751
0.00230187 0.0996463 0.00568693
1.32841e-018 3.32566e-017 4.40743e-018
0.000573388 0.08919 0.00317219
-4.51051e-005 0.0995079 0.00530798
-0.000651082 0.185919 0.00445653
-0.00104981 0.0781797 0.0027562
6.32935e-031 3.42286e-030 -7.1247e-032
-0.0414179 -0.321936 0.00192625
5.88761e-031 1.09751e-029 -1.04527e-031
1.01051e-030 5.00484e-030 -8.91306e-032
-0.0278167 -0.190059 0.0036569
-2.85672e-017 -2.42701e-016 5.43562e-018
2.27987e-029 -4.95987e-030 1.58956e-029
-0.0179581 -0.183864 0.00207564
-0.0257875 -0.176421 0.00174442
-2.28668e-017 -1.97847e-016 2.83587e-018
0.517276 -0.000286388 -0.000178305
-2.07331e-029 2.60383e-032 -4.56523e-033
-2.1557e-029 1.36565e-032 4.17598e-033
-3.67214e-029 5.05487e-032 6.604e-033
0.347598 0.000135858 -8.63515e-005
0.349219 -0.000133008 -0.000229614
0.347155 -0.000302845 6.1554e-005
1.4525e-029 -6.48566e-020 1.00725e-019
1.31709e-029 4.19375e-021 -1.13435e-020
2.53876e-017 -1.69735e-020 -1.41505e-030
0.202009 0.749448 -0.046548
-0.0112485 0.791178 -0.0293605
-0.0171191 0.931714 -0.089509
0.036076 0.708575 -0.00585604
0.0920616 0.896586 -0.0538565
0.0690628 0.883024 -0.0773566
0.13651 0.839713 -0.0402152
-0.0176473 0.976306 -0.0672498
0.0524609 0.810142 -0.0200881
0.0434556 0.980574 -0.0582742
-7.76971e-029 1.11761e-031 2.20364e-032
-4.57431e-029 8.70503e-032 8.86667e-032
-5.68054e-029 4.55172e-031 -5.33858e-032
0.473072 -0.00386466 0.000146971
1.97339e-017 -5.77893e-023 -9.7973e-020
1.96721e-017 -4.47853e-022 -4.68414e-022
0.373386 4.76765e-005 -0.00126615
9.08266e-019 1.06422e-028 3.52545e-030
0.333328 0.000526418 -0.000994668
0.379431 -0.00258098 0.000711069
8.4093e-030 4.9022e-030 -2.5505e-031
-0.394611 -0.239998 0.0118018
2.86351e-030 1.70018e-030 -1.07011e-031
-0.268723 -0.172456 0.0101387
-0.260753 -0.139643 0.00810864
5.74167e-016 3.87264e-016 -2.91701e-017
-0.452106 -0.228694 0.0102545
-0.237648 -0.156 0.0114639
-0.250391 -0.137796 0.00815277
-0.841281 0.000945934 0.00603254
1.83915e-028 -2.39662e-031 -2.70179e-031
1.36665e-029 -8.9311e-032 -1.70888e-031
-0.840218 0.00521118 0.00298618
-0.556738 0.0027897 0.00282077
-0.501384 -0.000363918 0.00637679
-0.930172 0.00411448 0.00362785
-2.36141e-029 3.34835e-029 6.23018e-029
-0.473507 0.00440359 0.00197901
-0.50598 0.00647676 0.00357581
-3.69863e-029 3.23805e-031 1.91439e-031
-1.35444e-029 1.90557e-031 1.5483e-031
-2.09232e-029 -9.23785e-031 -2.73221e-033
-4.55425e-017 1.97371e-018 3.1876e-019
-1.17836e-018 1.69537e-020 3.49732e-020
0.297516 -0.0020904 -0.00133897
-1.61617e-017 3.97357e-019 5.57269e-019
0.274621 -0.00512915 -0.0022451
0.283936 0.00469075 -0.0103197
-8.11707e-029 1.34263e-030 -3.07934e-031
0.381604 -0.00640685 0.000711625
0.319298 -0.00982149 0.00215236
0.345913 -0.00698428 0.000831843
0.531055 -0.00839216 0.000100855
0.548826 -0.00564385 -9.3241e-005
0.483336 -0.01049 -0.000478849
-1.77356e-029 -2.17074e-031 2.95484e-032
-3.33002e-029 4.11847e-031 -2.07987e-032
5.36517e-017 -2.53658e-018 -2.99593e-019
4.69275e-017 -1.91974e-018 -3.28396e-019
0.278836 -0.00256215 -0.000748101
4.20344e-018 -2.06541e-019 -4.86865e-020
0.286648 -0.00354999 -0.00278898
-6.21237e-029 2.63485e-031 2.53169e-031
0.472722 0.00157631 -0.000704271
-4.13232e-029 1.46877e-031 1.07072e-031
0.289332 -0.00154982 -0.000826937
-9.74591e-017 1.63718e-019 6.9971e-019
0.370353 -0.00307211 -0.00187562
0.300984 -0.00011167 -0.000781714
0.495576 -0.00159846 -0.000800882
0.317999 0.00060115 -0.00218456
-1.66132e-029 1.256e-031 -1.33857e-031
-4.89437e-029 7.40435e-033 -3.19709e-031
-5.69965e-029 3.10326e-031 -2.75617e-031
3.33563e-017 -5.27596e-019 8.29935e-019
-3.58874e-017 6.07787e-019 -7.95795e-019
0.292467 -0.00386132 0.00573968
-2.34431e-017 3.25608e-019 -3.85276e-019
0.304155 -0.00292809 0.00386759
0.303904 -0.00332648 0.00288823
1.40996e-030 -8.19284e-030 4.50631e-031
-0.180524 0.117372 -0.0216681
1.94938e-030 -3.75499e-030 5.76246e-031
0.0749621 0.21704 -0.0291243
-0.0600577 0.0856661 -0.00565912
-1.3647e-017 -4.11731e-018 5.65288e-021
0.00875146 0.137712 -0.00698091
-0.0681722 0.0434909 -0.00511776
-0.0687461 0.180655 -0.0236198
-0.00397722 0.0771964 -0.00787555
-6.696e-030 -3.71602e-030 -8.38575e-031
-5.3947e-029 -7.41953e-030 -1.1253e-030
-9.17429e-030 -1.99983e-029 2.64315e-031
0.205068 0.0453673 0.0359776
0.243372 0.0881641 0.0218855
0.256411 0.198815 0.0515622
2.83321e-030 5.24979e-029 -3.24556e-029
5.61295e-017 5.33382e-017 1.29701e-017
-6.9759e-017 -4.53651e-017 -1.34891e-017
-2.17515e-029 -1.96173e-031 6.28867e-032
-1.35024e-017 3.91111e-019 -6.61279e-020
5.22212e-017 -1.6208e-018 -3.95393e-020
0.30935 -0.000180799 0.00133303
-0.0937633 -0.2655 0.00278626
1.62161e-030 3.2896e-030 -5.37737e-032
-0.152694 -0.264155 -0.00456462
3.60819e-030 8.11148e-030 4.85066e-032
-0.060143 -0.137971 0.00368709
-0.127266 -0.273538 -0.00070783
-0.060565 -0.146035 0.00228938
-0.0840012 -0.152399 0.0016855
9.93678e-018 1.96085e-017 -4.73132e-019
-0.0734287 -0.139681 -0.000107114
-0.288066 -0.325245 -0.0317493
-0.268763 -0.486036 -0.03435
-0.118703 -0.184222 -0.0160199
-0.221585 -0.281734 -0.0389321
-0.286921 -0.41636 -0.0338758
-0.198013 -0.273004 -0.0257853
-0.224823 -0.368075 -0.041917
-0.133715 -0.206858 -0.0227576
-0.212679 -0.363881 -0.0306744
0.470996 0.00161014 8.49067e-005
-9.77975e-029 -2.67817e-031 3.53002e-031
-4.00972e-029 -1.88601e-031 5.38267e-032
0.484153 0.00210402 -0.000744687
0.307266 0.00245502 -0.000898749
0.290373 0.00241519 0.000645612
0.491124 0.00258661 -0.00106886
4.27315e-029 -8.43945e-030 -1.06031e-028
0.401944 -0.00145012 -0.00159045
0.353484 -0.000375422 -0.000337377
-1.75632e-029 2.58463e-032 1.64263e-032
-4.65449e-029 1.38003e-032 -6.95871e-033
-8.68984e-029 4.55838e-032 5.0333e-032
1.33541e-029 4.78687e-029 8.4354e-029
0.294882 -0.000464726 -0.000207
6.40472e-017 3.18539e-019 -3.33747e-020
0.323216 0.000660661 0.000445775
-3.03217e-017 -1.00742e-019 2.94778e-020
0.294977 -7.96096e-005 -0.000408272
-2.63124e-029 4.76591e-032 -3.12307e-032
-5.10294e-029 5.54361e-032 -1.09748e-031
0.513006 -0.000581972 0.000266428
-8.81693e-029 1.19225e-031 -2.13546e-031
8.39146e-017 -2.09231e-019 4.16248e-019
0.387239 -0.000886119 0.000775423
-6.61946e-017 3.72803e-019 -1.68526e-019
0.397985 -0.000723173 0.00198045
3.14385e-017 5.70212e-020 2.08037e-019
0.377573 -0.00226762 0.000651903
0.470082 0.00115104 -0.000622222
-9.7591e-029 4.11247e-032 9.9954e-032
0.539765 8.73255e-005 -7.11987e-005
0.344588 0.000250289 -0.000346481
0.473056 0.00199202 0.000424746
0.376683 -0.00155321 0.00111298
0.546407 0.0019694 -0.000950244
0.383329 0.000804096 -0.000344278
1.298e-029 1.24475e-031 -1.02131e-031
-0.34761 -0.00529907 0.00475608
7.82284e-017 2.94161e-018 -1.14568e-018
-0.462845 -0.00486839 0.00487688
-0.755255 -0.0106762 0.00460122
1.26374e-030 -5.98063e-029 3.90403e-030
1.50497e-031 -1.10375e-028 7.02728e-030
-0.0098546 0.682081 -0.0430224
6.85255e-005 0.690331 -0.0437619
-0.0122544 0.477122 -0.0318879
1.39941e-018 -9.30318e-017 6.25264e-018
-0.00809236 0.569509 -0.0366923
0.000634545 0.521468 -0.00353954
0.0120137 0.277025 0.00194522
0.00417521 0.531763 -0.00937491
0.000119207 0.353348 -0.000671926
0.00913607 0.425534 -6.17806e-005
0.00334776 0.528849 -0.0066339
0.000322166 0.440573 -0.00102846
0.00839609 0.418839 -0.00328238
0.00514693 0.341781 0.000576581
0.00186918 0.456746 -0.00387044
0.0072201 0.266239 0.00591461
0.0018232 0.375067 0.00484751
0.00091869 0.284068 0.00289101
8.51896e-029 1.58336e-030 6.81434e-031
1.43219e-028 2.88403e-030 9.99235e-031
2.55809e-029 2.9792e-031 1.24319e-031
-0.631428 -0.00810039 -0.00369771
-0.595362 -0.00888523 -0.00593628
-0.595057 -0.0100261 -0.00360455
-1.36004e-016 3.45572e-019 -1.90574e-018
-1.60665e-016 -2.9587e-018 -1.37092e-018
-1.52657e-016 -3.13297e-018 -1.86798e-018
7.39888e-031 2.80104e-030 -6.16109e-032
-0.164363 -0.491145 -0.00416699
4.13636e-030 2.06222e-029 1.35035e-031
1.55627e-030 7.63218e-030 -1.37471e-031
-0.0950567 -0.357754 0.00657684
4.49888e-030 -4.229e-030 -2.71845e-029
-4.29396e-017 -2.10469e-016 7.41875e-018