# vtk DataFile Version 2.0 
output.vtk, Created by Freefem++, via gregorio
ASCII
DATASET UNSTRUCTURED_GRID
POINTS 7451 double
-3.79965 2.23652 0.040848
-4.13429 2.05574 0.276253
-4.09122 2.24524 0.070091
-4.01836 2.27766 0.330071
-3.96697 2.14613 0.158551
-3.94543 2.24088 0.0554695
-3.90901 2.25709 0.185459
-4.11275 2.15049 0.173172
-4.07633 2.1667 0.303162
-4.05479 2.26145 0.200081
-4.81817 0.732763 -0.840268
-4.76136 0.37264 -0.736193
-5.12328 0.495929 -0.550642
-4.73872 0.559667 -0.434419
-4.78977 0.552702 -0.788231
-4.97072 0.614346 -0.695455
-4.77845 0.646215 -0.637344
-4.94232 0.434285 -0.643417
-4.75004 0.466153 -0.585306
-4.931 0.527798 -0.49253
-7.58244 -0.891248 -0.453516
-8 -0.559587 0.124298
-7.26059 -0.264226 0.250847
-7.58828 -0.999993 0.00381
-7.79122 -0.725418 -0.164609
-7.42152 -0.577737 -0.101334
-7.58536 -0.94562 -0.224853
-7.6303 -0.411906 0.187573
-7.79414 -0.77979 0.064054
-7.42444 -0.632109 0.127328
-5.46564 0.048234 0.998836
-5.51396 -0.351144 0.936321
-5.02851 -0.125769 0.598961
-5.56665 -0.148801 0.504295
-5.4898 -0.151455 0.967578
-5.24708 -0.0387675 0.798898
-5.51614 -0.0502835 0.751565
-5.27124 -0.238457 0.767641
-5.5403 -0.249972 0.720308
-5.29758 -0.137285 0.551628
-4.20269 -2.80441 0.102764
-3.63085 -2.57461 -0.287529
-4.13183 -2.29387 0.255347
-4.14432 -2.47254 -0.273935
-3.91677 -2.68951 -0.0923825
-4.16726 -2.54914 0.179055
-4.1735 -2.63848 -0.0855855
-3.88134 -2.43424 -0.016091
-3.88759 -2.52358 -0.280732
-4.13807 -2.38321 -0.009294
-6.25062 -0.085247 0.575431
-6.51584 -0.423084 -0.15939
-6.46019 0.447486 0.293263
-6.75561 -0.174737 0.413139
-6.38323 -0.254165 0.20802
-6.35541 0.181119 0.434347
-6.88822 -0.343655 0.0457285
-6.86039 0.09163 0.272055
-6.48801 0.012201 0.0669365
-4.88162 0.371746 0.655425
-4.51246 -0.112716 0.623981
-4.65723 0.09269 0.995695
-4.69704 0.129515 0.639703
-4.95507 0.122989 0.627193
-4.76942 0.232218 0.82556
-4.77049 -0.119243 0.611471
-4.58484 -0.010013 0.809838
-4.84287 -0.0165395 0.797328
-3.75099 1.20677 0.090288
-3.64118 0.745776 0.266863
-4.09568 0.790235 0.315934
-3.78936 1.07086 0.69071
-3.69609 0.976272 0.178575
-3.92333 0.998502 0.203111
-3.77017 1.13882 0.390499
-3.86843 0.768006 0.291399
-3.71527 0.908319 0.478787
-3.94252 0.930549 0.503322
-2.18572 0.40145 0.915881
-1.75478 0.245881 0.526965
-1.94554 -0.013967 0.999902
-1.76886 0.356252 0.93439
-1.97025 0.323665 0.721423
-2.06563 0.193741 0.957891
-1.97729 0.378851 0.925135
-1.85016 0.115957 0.763433
-1.76182 0.301067 0.730678
-1.8572 0.171143 0.967146
-5.06116 0.824959 0.710182
-4.88551 0.773989 0.80113
-4.92155 0.772883 0.437198
-5.01596 0.602336 0.857802
-4.97333 0.799474 0.755656
-4.99135 0.798921 0.57369
-5.03856 0.713647 0.783992
-4.90353 0.773436 0.619164
-4.95074 0.688163 0.829466
-4.96876 0.687609 0.6475
-2.34262 2.51752 0.051733
-2.4672 2.85727 -0.311185
-2.29554 2.81673 0.086134
-2.65762 2.74748 0.16058
-2.40491 2.6874 -0.129726
-2.31908 2.66712 0.0689335
-2.50012 2.6325 0.106157
-2.38137 2.837 -0.112526
-2.56241 2.80238 -0.0753025
-2.47658 2.7821 0.123357
-3.50303 -3.76846 -0.636668
-3.49422 -3.29308 -1.15018
-3.31427 -3.71149 -1.25136
-2.90724 -3.34218 -0.858121
-3.49863 -3.53077 -0.893424
-3.40865 -3.73997 -0.944014
-3.20514 -3.55532 -0.747394
-3.40425 -3.50228 -1.20077
-3.20073 -3.31763 -1.00415
-3.11076 -3.52683 -1.05474
-4.0054 2.49156 -0.125899
-3.5956 2.50054 -0.194198
-3.83412 2.54803 0.0159
-3.8005 2.49605 -0.160049
-3.90253 2.36404 -0.0425255
-3.91976 2.5198 -0.0549995
-3.69763 2.36853 -0.076675
-3.71486 2.52428 -0.089149
-3.81689 2.39228 0.028374
-3.73452 -3.68531 -1.05781
-3.52439 -3.6984 -1.15459
-3.61437 -3.4892 -1.104
-3.61877 -3.72688 -0.84724
-6.37864 0.944563 0.328331
-6.25891 0.813305 0.581838
-6.65332 0.772267 0.635298
-6.31878 0.878934 0.455085
-6.41941 0.696025 0.310797
-6.51598 0.858415 0.481815
-6.35955 0.630395 0.43755
-6.45612 0.792786 0.608568
-6.55675 0.609877 0.46428
1.62066 -0.841518 -0.540229
1.89324 0.238579 -0.195511
2.01627 -0.690819 -0.723027
2.25185 -0.211859 0.261412
1.75695 -0.30147 -0.36787
1.81846 -0.766169 -0.631628
1.93625 -0.526689 -0.139408
1.95475 -0.22612 -0.459269
2.07254 0.01336 0.0329505
2.13406 -0.451339 -0.230807
-2.56949 2.06853 0.305158
-2.91403 1.60744 0.564909
-3.02709 2.08175 0.021586
-2.87501 2.07662 0.630995
-2.74176 1.83799 0.435033
-2.79829 2.07514 0.163372
-2.72225 2.07258 0.468077
-2.97056 1.8446 0.293247
-2.89452 1.84203 0.597952
-2.95105 2.07919 0.32629
-5.39985 0.358755 0.933432
-5.34934 0.453264 0.543553
-5.56264 0.558471 0.829524
-5.70805 0.297641 0.954678
-5.37459 0.40601 0.738492
-5.48124 0.458613 0.881478
-5.55395 0.328198 0.944055
-5.45599 0.505868 0.686538
-5.52869 0.375452 0.749116
-5.63535 0.428056 0.892101
-4.17913 0.323834 -0.696515
-4.36183 0.516245 -0.417662
-4.60784 0.019305 -0.528365
-4.46586 0.364911 -0.72315
-4.27048 0.42004 -0.557088
-4.39349 0.17157 -0.61244
-4.3225 0.344372 -0.709832
-4.48483 0.267775 -0.473013
-4.41384 0.440578 -0.570406
-4.53685 0.192108 -0.625757
-5.9377 0.438799 -0.558905
-5.87927 0.529091 -0.848565
-6.25926 0.555743 -0.831354
-6.07929 0.245277 -0.969453
-5.90849 0.483945 -0.703735
-6.09848 0.497271 -0.695129
-6.00849 0.342038 -0.764179
-6.06927 0.542417 -0.839959
-5.97928 0.387184 -0.909009
-6.16928 0.40051 -0.900404
-3.64743 2.72944 0.180305
-3.74077 2.63873 0.0981025
-3.72354 2.48298 0.110576
-3.62151 2.61499 -0.0069465
-3.98168 0.388062 0.141859
-3.76543 0.320245 0.603448
-3.81143 0.566919 0.204361
-3.70331 0.533011 0.435156
-4.03868 0.589149 0.228897
-3.87356 0.354154 0.372653
-3.93055 0.55524 0.459691
-6.17342 0.027823 -0.593282
-6.59748 0.255766 -0.966739
-6.35964 0.547779 -0.240473
-6.21634 0.291783 -0.712318
-6.42837 0.405755 -0.899047
-6.30945 0.551761 -0.535914
-6.38545 0.141794 -0.78001
-6.26653 0.287801 -0.416878
-6.47856 0.401772 -0.603606
-5.98474 0.742767 -0.66955
-5.96122 0.590783 -0.614227
-6.122 0.649255 -0.750452
-5.93201 0.635929 -0.759057
-5.86659 0.345457 -0.129882
-5.96054 -0.099592 -0.035866
-6.02 0.18664 -0.361582
-6.11312 0.446618 -0.185177
-5.91357 0.122933 -0.082874
-6.06698 -0.0358845 -0.314574
-6.16009 0.224094 -0.13817
-1.10421 0.363269 -0.931684
-0.773878 0.737644 -0.67519
-0.520452 0.269543 -0.962988
-0.384634 0.008888 -0.353445
-0.939043 0.550457 -0.803437
-0.812329 0.316406 -0.947336
-0.74442 0.186079 -0.642564
-0.647165 0.503594 -0.819089
-0.579256 0.373266 -0.514317
-0.452543 0.139215 -0.658216
-2.85287 -3.00249 -1.21636
-3.23054 -2.92385 -1.196
-3.06719 -3.3306 -1.25351
-2.88006 -3.17233 -1.03724
-3.06889 -3.13301 -1.02706
-2.98722 -3.33639 -1.05581
-3.0417 -2.96317 -1.20618
-2.96003 -3.16654 -1.23493
-3.14886 -3.12722 -1.22475
-3.38618 -2.05134 -0.098565
-2.37808 -2.56123 -0.134541
-2.49252 -2.47812 0.422472
-2.41131 -1.89586 0.044632
-2.88213 -2.30628 -0.116553
-2.93935 -2.26473 0.161954
-2.89875 -1.9736 -0.0269665
-2.4353 -2.51967 0.143966
-2.39469 -2.22855 -0.0449545
-2.45192 -2.18699 0.233552
-1.85713 -0.413967 0.42138
-1.65927 -0.390905 0.920431
-1.2503 -0.077569 0.384148
-1.80595 -0.084043 0.474172
-1.70702 -0.072512 0.723698
-1.50254 0.084156 0.455557
-1.7582 -0.402436 0.670905
-1.55371 -0.245768 0.402764
-1.45478 -0.234237 0.652289
-2.09043 2.55218 0.167395
-2.0659 2.66009 -0.048555
-2.19298 2.68445 0.126765
-2.18072 2.73841 0.0187895
-2.07816 2.60614 0.05942
-2.21652 2.53485 0.109564
-2.20426 2.58881 0.001589
-4.01665 2.44382 0.136481
-3.97233 2.67361 0.084512
-3.92539 2.49592 0.0761905
-3.99449 2.55872 0.110496
-4.01103 2.46769 0.005291
-3.90323 2.61082 0.050206
-3.98887 2.58259 -0.0206935
-3.92754 1.80484 -0.220103
-4.28096 1.83407 -0.225431
-4.13592 1.88983 -0.461486
-4.146 2.03152 -0.278406
-4.10425 1.81945 -0.222767
-4.03173 1.84734 -0.340795
-4.03677 1.91818 -0.249254
-4.20844 1.86195 -0.343458
-4.21348 1.9328 -0.251918
-4.14096 1.96068 -0.369946
-4.04038 -5 0.949212
-3.62468 -5 1.26221
-3.84559 -4.54287 1.07336
-3.71487 -5 0.728948
-3.83253 -5 1.10571
-3.94299 -4.77144 1.01129
-3.87763 -5 0.83908
-3.73513 -4.77144 1.16779
-3.66977 -5 0.99558
-3.78023 -4.77144 0.901156
-1.37334 0.812082 -0.583544
-0.975724 0.961208 -0.275823
-1.19336 -0.166381 -0.273753
-1.17453 0.886645 -0.429683
-1.07361 0.774863 -0.629367
-1.28335 0.32285 -0.428648
-0.874801 0.849426 -0.475506
-1.08454 0.397413 -0.274788
-0.983618 0.285631 -0.474471
-3.83515 -1.82017 -0.741539
-3.34976 -1.58414 -0.592596
-3.50394 -2.07825 -1.02313
-3.59245 -1.70215 -0.667067
-3.66955 -1.94921 -0.882335
-3.61067 -1.93575 -0.420052
-3.42685 -1.83119 -0.807863
-3.36797 -1.81774 -0.345581
-3.44506 -2.06479 -0.560848
-2.72946 0.769161 0.094533
-2.75119 0.681139 -0.326037
-2.98528 1.02631 -0.281501
-3.08113 0.734324 -0.34324
-2.74032 0.72515 -0.115752
-2.85737 0.897737 -0.093484
-2.90529 0.751742 -0.124353
-2.86823 0.853726 -0.303769
-2.91616 0.707731 -0.334639
-3.03321 0.880319 -0.31237
-2.94023 -2.47675 -0.674772
-3.14499 -2.03044 -0.633684
-3.22209 -2.2775 -0.848951
-3.16321 -2.26404 -0.386669
-3.03914 -4.25341 0.579285
-2.64287 -3.80807 0.20828
-2.47531 -4.18593 0.714333
-2.97264 -3.41482 0.618231
-2.84101 -4.03074 0.393783
-2.75723 -4.21967 0.646809
-3.00589 -3.83412 0.598758
-2.55909 -3.997 0.461307
-2.80776 -3.61144 0.413255
-2.72397 -3.80037 0.666282
-2.39684 -0.595487 -0.803365
-1.98884 -0.54749 -0.836812
-2.24172 -0.466498 -0.098067
-2.21295 -0.01831 -0.514797
-2.19284 -0.571489 -0.820088
-2.31928 -0.530992 -0.450716
-2.3049 -0.306899 -0.659081
-2.11528 -0.506994 -0.46744
-2.1009 -0.2829 -0.675804
-2.22734 -0.242404 -0.306432
-3.36239 -4.55484 -1.31864
-3.11171 -4.25429 -0.873787
-2.86199 -4.55394 -1.36046
-2.79118 -5 -0.96439
-3.23705 -4.40456 -1.09621
-3.11219 -4.55439 -1.33955
-3.07678 -4.77742 -1.14151
-2.98685 -4.40411 -1.11712
-2.95144 -4.62714 -0.919088
-2.82658 -4.77697 -1.16243
-3.88203 2.65205 -0.416886
-3.48121 2.84727 -0.340672
-3.82273 3 -0.474998
-3.72541 2.76868 -0.627028
-3.68162 2.74966 -0.378779
-3.85238 2.82603 -0.445942
-3.80372 2.71037 -0.521957
-3.65197 2.92364 -0.407835
-3.60331 2.80798 -0.48385
-3.77407 2.88434 -0.551013
[...]
POINT_DATA 7451
 
FIELD FieldData 2
velocity 3 7451 double
-0.904197 -2.58493 0.013423
1.16645e-029 2.69315e-029 -9.5813e-031
3.93013e-030 1.08276e-029 -1.08787e-031
9.96244e-030 2.68434e-029 -9.29975e-031
-0.686907 -1.69269 0.0470682
-0.637095 -1.75394 0.0173228
-0.680924 -1.9324 0.0628115
-1.724e-017 -4.2594e-017 1.14048e-018
5.01425e-017 1.22917e-016 -6.25863e-018
6.44441e-030 -9.44279e-030 -1.88833e-030
2.12185e-029 1.27015e-029 1.12376e-030
-0.889116 -0.547046 -0.0398072
-1.31732 -0.464299 -0.0369495
-1.45306 -0.839566 -0.0421782
-0.574856 -0.384997 -0.0303954
-0.754764 -0.370039 -0.0379812
-1.00786 -0.634226 -0.0622866
-1.1453 -0.530593 -0.0314734
-1.24106 -0.717524 -0.0408466
-1.40598 -0.659924 -0.0449115
1.80343e-028 1.99931e-031 4.40512e-031
-1.56193 0.00937522 -0.0017665
-1.76973 -0.00356561 0.00148551
1.08667e-028 -1.32679e-031 2.34234e-031
-1.10978 -0.00294623 -0.00696352
-1.59966 -0.00728803 -0.00913816
-2.85734e-016 -5.69794e-019 -1.82048e-018
-1.74416 -0.0011522 -0.00139021
-1.00521 0.00869159 -0.00710956
-1.46554 0.00115732 -0.00401057
6.41335e-029 1.00124e-029 1.20951e-031
4.30219e-029 4.49428e-030 1.26857e-030
-1.2296 -0.247823 -0.0402999
-1.54945 -0.129863 -0.0141777
-2.406e-016 -3.51792e-017 -9.57275e-018
-0.866693 -0.176617 -0.0186757
-1.07494 -0.116943 -0.016335
-0.831673 -0.109739 -0.0351961
-1.03557 -0.0807922 -0.0286218
-1.41152 -0.183005 -0.0209384
4.71903e-030 5.65988e-029 -5.86016e-031
-0.0263568 -0.322962 -0.0153505
4.8173e-030 6.58e-029 -5.89353e-031
1.41377e-030 1.54294e-029 5.62114e-031
-0.0361272 -0.359394 -0.00173174
9.94217e-017 7.6805e-016 -4.60809e-018
7.6782e-018 7.59565e-017 1.23689e-018
-0.03573 -0.379863 -0.0032238
-0.0396581 -0.421426 -0.0160289
1.00039e-016 1.02886e-015 1.86176e-017
-1.52044 -0.0381017 -0.00997043
-1.67655 -0.0186581 0.00336222
-1.62683 -0.029871 -0.00450714
-1.77031 -0.0184144 -0.00683767
-1.87841 -0.0356442 -0.00772912
-1.73486 -0.0386619 -0.00813733
-1.83286 -0.00577683 0.00124368
-1.92841 -0.0167189 -0.00750829
-2.0127 -0.0352051 -0.00385295
-1.15851 -0.550471 0.0450847
-0.870901 -0.439963 -0.0854262
3.47284e-029 2.0793e-029 5.35508e-031
-1.11358 -0.543714 -0.0148095
-1.26659 -0.416967 -0.00163632
-0.657839 -0.468687 0.0273702
-1.07816 -0.334356 -0.0587284
-0.633961 -0.468233 -0.0512684
-0.766175 -0.340252 -0.0335109
-1.25131 -2.41884 -0.0146418
-0.718273 -2.03975 -0.0416902
-1.28765 -1.64351 0.0166937
-0.928683 -1.95471 0.0271233
-1.0155 -2.24492 -0.0428375
-1.29027 -2.0297 0.0127303
-1.21562 -2.26591 0.000848807
-1.05117 -1.84723 -0.0053628
-0.937212 -2.11881 -0.0623519
-1.12565 -1.86516 0.0236022
-4.23647e-029 1.37123e-029 -4.21214e-030
0.668842 -0.087974 0.0291682
-3.8858e-029 1.17402e-029 2.10904e-031
-9.44657e-030 1.60896e-030 -6.63514e-031
0.446256 -0.115482 0.0458211
1.61691e-016 -8.79891e-017 8.18985e-018
8.21778e-018 -2.11662e-018 9.21361e-019
0.434321 -0.109432 0.0178139
0.4311 -0.0683465 0.0296357
-1.54563e-016 3.8944e-017 -9.56648e-018
7.05306e-017 4.03954e-017 -7.52576e-018
6.81025e-030 4.35386e-030 -5.86148e-031
-1.24556 -0.655134 0.0666164
6.95812e-030 4.02513e-030 -5.51116e-031
3.5655e-017 2.27942e-017 -4.2492e-018
-0.761412 -0.421527 0.0646724
2.62452e-016 1.54352e-016 -4.33275e-017
-0.771358 -0.487795 0.0770844
4.08092e-016 2.9984e-016 -4.38292e-017
-0.791493 -0.453061 0.0662006
-0.271685 -1.88271 -0.0134044
-0.157725 -2.34936 -0.0641503
-0.098801 -1.91293 0.0106808
-0.317849 -2.85709 0.00168341
-0.214286 -2.22696 -0.00917433
-0.185778 -1.89381 -0.00117153
-0.310902 -2.50443 -0.00430714
-0.134356 -2.25988 -0.016972
-0.249706 -2.73606 -0.00603243
-0.22237 -2.57691 0.0138896
-0.0147895 -0.323884 -0.0223911
1.70273e-030 4.86909e-029 3.81265e-030
1.10962e-030 4.78854e-029 3.7602e-030
0.00520866 -0.474661 -0.0396093
-0.0189411 -0.45116 -0.0412644
-0.0181549 -0.476661 -0.03858
-0.0141537 -0.383169 -0.0304833
-1.13872e-031 -3.13304e-029 3.95366e-031
-0.0144088 -0.50735 -0.0400166
-0.0133474 -0.493672 -0.0394261
8.5284e-030 3.27876e-029 9.30625e-032
-0.684491 -2.98308 -0.0153161
-0.436593 -2.03339 -0.0147506
-0.54024 -2.23643 0.0018552
-0.559705 -1.81546 -0.012146
-0.282142 -1.1746 -0.016409
-0.819785 -2.85543 -0.00976697
-0.626415 -2.75607 -0.0143114
-0.672928 -2.34719 -0.00260583
6.62668e-031 1.48931e-029 1.16234e-030
1.49481e-017 3.64271e-016 3.18361e-017
-1.34446e-017 -3.08816e-016 -2.90596e-017
-0.0203643 -0.443753 -0.0389037
2.14824e-029 4.59387e-031 6.88445e-033
2.82554e-029 6.57847e-031 -6.53324e-032
3.67209e-029 6.30365e-031 1.92706e-031
1.65104e-016 4.56247e-018 -2.45097e-019
-1.1056 -0.0320829 -0.000586128
-1.6363e-029 -4.98116e-030 -2.3844e-030
-1.08434 -0.0208914 0.000376012
-4.27334e-017 -6.77105e-019 1.6602e-019
-1.09153 -0.0156318 -0.00381841
-2.43675e-028 9.38479e-031 -2.93343e-032
0.720893 -0.00120113 6.56466e-005
-9.33083e-029 4.16078e-031 -2.09243e-031
0.702329 -0.00131117 0.0013966
0.697542 -0.00614581 0.00153
-1.2358e-016 1.04815e-018 -2.57279e-019
0.654672 -0.00413557 0.000637325
0.683537 -0.00287858 0.00330056
0.780467 -0.00161052 0.00139529
0.689209 -0.0049398 0.0021277
-0.583944 -2.19428 -0.0729788
-0.806777 -2.16364 -0.20571
-0.867114 -2.93127 -0.0191553
-0.640887 -2.41547 -0.0954032
-0.746684 -2.33465 -0.136368
-0.780655 -2.77023 -0.0546156
-0.650582 -2.42864 -0.0984871
-0.953896 -2.86453 -0.0837637
-0.747195 -2.30644 -0.149293
-0.838024 -2.91072 -0.0658902
6.81239e-030 1.34763e-030 -3.28912e-031
-1.36781 -0.310021 0.0457497
1.45711e-029 1.64071e-030 -5.62353e-031
5.92306e-029 5.80335e-030 -8.01823e-031
-0.843883 -0.159075 0.0489246
-2.37283e-016 -3.32273e-017 1.6605e-017
3.23885e-016 3.61074e-017 -1.92639e-017
-0.825805 -0.133977 0.0429349
-0.844933 -0.107965 0.03372
-5.3884e-017 -5.25377e-018 3.63998e-018
-0.682776 -1.05008 -0.0373769
-1.28041 -1.12013 -0.0276815
-1.13353 -0.5288 0.0277714
-0.831904 -0.802743 -0.0437676
-1.01724 -1.06336 -0.0200838
-0.934293 -0.791859 0.00165729
-0.772294 -0.925023 -0.0391596
-1.22315 -0.800527 -0.00824447
-1.11844 -0.957343 -0.0354531
-1.04063 -0.713643 -0.0120623
-1.26268 -0.0566668 -0.0121783
7.34803e-030 2.70937e-031 9.41427e-032
5.97401e-029 1.58972e-030 -4.41633e-032
2.85658e-029 1.03549e-030 5.72485e-032
-0.755162 -0.0248646 -0.00810538
-0.739029 -0.0290951 0.00131506
-0.798864 -0.0303508 -0.00237545
-5.74773e-016 -1.70705e-017 -4.67076e-019
-4.09754e-016 -7.95731e-018 -1.9503e-018
-2.38609e-029 -3.56596e-030 6.01853e-030
-0.431659 -2.80528 0.0159805
-0.449547 -2.54495 0.000767224
-0.648051 -2.76314 0.00546012
-0.579437 -3.05105 -0.00891425
-0.977533 -1.29955 -0.0175481
-0.385489 -1.21434 0.0754001
-0.851547 -1.65104 -0.0276793
-0.56952 -1.66812 -0.00516633
-1.14597 -1.5136 -0.00117291
-0.744097 -1.3198 0.0118522
-0.898136 -1.53639 0.00181754
-1.50714 -0.0455771 0.00250199
-8.07369e-017 -4.489e-020 7.44028e-020
-1.53 -0.0288607 -9.13058e-006
-1.05731 -0.0383202 0.00324548
-5.68144e-029 -4.74631e-030 6.83385e-030
-1.07859 -0.0233381 0.00696173
-0.965038 -0.0297724 0.00523978
-1.69173 -0.0459755 0.00220028
-1.20044 -0.0184023 0.00402159
1.18298e-029 4.38854e-031 2.10436e-031
-0.768734 -0.0304464 -0.00732271
-1.85929e-016 -6.62066e-018 3.61899e-020
-2.48396e-016 -7.5078e-018 -2.59901e-018
-1.90963 -0.119394 -0.00592733
-1.94846 -0.0924733 -0.0020316
-1.82602 -0.077621 -0.00555717
-1.75488 -0.0588914 -0.00318319
-2.00251 -0.114461 -0.0016689
-1.89709 -0.074614 -0.000962645
-1.95627 -0.0660095 0.000468543
4.15241e-017 -1.88241e-018 -2.03712e-019
-8.80125e-029 1.74814e-030 4.93681e-031
-3.4056e-029 3.72162e-032 1.08195e-031
0.723475 -0.00374934 0.000585605
-6.25261e-017 2.35404e-018 1.90018e-019
2.62699e-029 -5.13824e-030 1.48616e-029
0.550844 -0.00867686 -0.0026826
-6.60234e-017 1.18737e-019 6.09994e-019
0.604049 -0.0060705 -0.00186784
0.558264 0.00275607 -0.00523591
-2.51334e-031 2.44777e-029 2.10038e-030
7.09356e-031 5.29871e-029 4.07351e-030
4.89957e-032 1.1929e-029 1.01456e-030
0.0058778 -0.515681 -0.0568266
-0.00102235 -0.512113 -0.0451408
-0.000958944 -0.529214 -0.0447262
-9.99698e-019 3.51036e-016 4.19009e-017
5.13928e-019 -1.79315e-016 -1.81517e-017
2.03642e-018 3.57046e-016 -1.5557e-017
0.0078633 -0.146065 -0.00185777
0.0235568 -0.295059 -0.00754031
0.0227666 -0.274581 0.0124717
0.0309355 -0.257888 3.57392e-005
0.0164852 -0.142864 -0.00149054
0.0149625 -0.145668 0.00387089
0.0236611 -0.121853 7.9274e-005
0.0211892 -0.296434 0.00215996
0.0240928 -0.291722 -0.005675
0.0259895 -0.298931 0.00898983
0.499749 -0.0877206 -0.0516457
-4.70617e-029 6.64952e-030 1.69818e-030
0.704964 -0.0383037 -0.00510977
0.675996 -0.102625 -0.00701523
0.468175 -0.0935568 -0.00471767
0.711193 -0.0672009 0.00633603
0.358024 -0.0688134 -0.0395484
0.655809 -0.0556654 -0.0226306
0.499156 -0.0558599 -0.0187665
-2.1746e-017 -2.72665e-016 2.28802e-018
1.01727e-030 1.17229e-029 7.54801e-032
-0.0736678 -1.09222 0.00782235
-0.0769307 -1.11358 0.0023378
-4.49409e-017 -5.54816e-016 2.1404e-018
-0.1589 -1.17664 -0.00517719
-0.143153 -1.17151 -0.0223123
-7.41147e-017 -2.9401e-016 -5.98411e-020
2.5211e-030 1.56172e-029 -6.21859e-034
-0.299556 -1.25009 -0.00230829
1.29624e-016 6.57684e-016 6.90683e-018
7.63003e-030 -1.19286e-029 -7.11023e-032
-0.210627 -1.24757 -0.0206198
2.4378e-016 1.24832e-015 2.63376e-017
-1.21635 -2.31614 -0.0540352
1.07627e-029 1.6946e-029 3.58892e-031
5.8471e-030 1.10777e-029 4.71783e-031
4.46462e-030 8.61998e-030 2.5422e-031
-0.898265 -1.5015 -0.0410037
-0.886872 -1.64131 -0.0752236
-0.868857 -1.63366 -0.0590266
-4.87891e-016 -8.22743e-016 -3.69805e-017
-3.08805e-015 -5.26802e-015 -1.94545e-016
-2.03846e-015 -3.76038e-015 -1.90483e-016
1.79648e-031 4.84519e-030 -1.9366e-031
2.40876e-031 1.20621e-029 -6.83733e-031
9.27223e-031 2.1144e-029 -1.34863e-030
-0.0123134 -0.234519 0.0128937
8.77268e-018 2.61766e-016 -1.32563e-017
1.37117e-018 3.02338e-017 -1.75668e-018
-0.013279 -0.302932 0.0149988
-2.036e-018 -5.42616e-017 3.21965e-018
-0.0112634 -0.362931 0.0192304
-0.017591 -0.359245 0.0231095
-1.07679e-028 7.56501e-030 1.64883e-030
-1.03436e-028 2.26956e-030 8.40798e-031
0.712995 -0.0336352 0.00393802
5.05789e-017 -2.02188e-018 -9.21124e-019
-5.62364e-017 2.68583e-018 6.73313e-019
0.727071 -0.0432625 -0.0109396
-1.24542e-016 9.06993e-019 1.04118e-018
0.757758 -0.0186599 -0.00764018
0.680517 -0.0237548 0.000323951
-7.47601e-020 -2.32853e-018 -4.62951e-020
0.0254445 -0.511763 -0.0345978
1.58937e-030 9.1986e-029 5.57169e-030
0.0100598 -0.504845 -0.0236088
-8.1671e-018 4.15236e-016 1.23618e-017
-0.0158754 -0.592211 -0.0115126
0.000942778 -0.524148 -0.0322203
0.0131276 -0.388282 -0.0113466
-0.0140085 -0.547414 -0.0234041
1.28561 -2.05699 0.116386
1.09561 -1.47168 -0.317318
-0.190537 -2.97873 0.160531
0.396592 -2.38045 -0.112681
1.18783 -1.94997 -0.105862
0.655699 -2.889 -0.0758897
0.889275 -2.4468 -0.0871945
0.642622 -2.25946 -0.0944565
0.881657 -2.1117 -0.221532
0.221427 -2.74679 0.0180725
0.0100537 -0.388264 -0.0314265
0.00694399 -0.50393 -0.0290472
-0.00873494 -0.605464 -0.0493347
0.00530269 -0.251112 -0.00800044
0.00112273 -0.0626844 0.00735467
0.00571426 -0.142447 0.00207239
0.0140275 -0.240526 0.0197911
-0.000386865 -0.0957813 0.00889666
0.00626233 -0.14565 0.00171489
0.00597377 -0.141585 0.0131496
-0.000921541 -0.0825232 0.0115754
0.0127142 -0.224272 0.00424799
0.00465275 -0.162804 0.000308491
0.0101426 -0.169886 0.0179627
2.44048e-017 -1.57751e-016 -3.33872e-018
1.04388e-016 -2.97199e-017 1.0011e-017
0.473338 -0.129151 0.0127504
0.64398 -0.254928 -0.00932488
1.78103e-029 -8.34212e-030 1.05032e-029
0.293692 -0.284286 0.0296881
0.353386 -0.269239 0.045686
0.323767 -0.195482 0.0503583
0.377115 -0.195831 0.0416096
0.593475 -0.200985 0.0127468
-1.44122e-018 -1.63242e-016 -1.29883e-017
-0.00138071 -0.375162 -0.0286342
-6.01151e-031 4.47202e-029 3.15612e-030
0.00448227 -0.382074 -0.020668
-0.00359052 -0.461378 -0.0364057
-3.71583e-018 -2.88633e-016 -2.93605e-017
-0.00124505 -0.443221 -0.0291952
0.00197953 -0.454468 -0.0369029
0.0030968 -0.382988 -0.0248007
0.00582624 -0.405378 -0.0287434
6.01847e-030 3.69727e-029 1.90518e-031
-0.340701 -3.00368 -0.0244036
5.27861e-030 1.21029e-028 1.67005e-031
9.50145e-030 5.80427e-029 8.428e-031
-0.284626 -2.26406 -0.0109095
-3.33083e-016 -3.47821e-015 -1.29944e-017
8.65561e-030 -3.04898e-029 8.52669e-030
-0.177983 -2.28969 -0.0126941
-0.271131 -2.29337 -0.0479884
-2.76709e-016 -3.0585e-015 -4.81232e-017
0.710429 -0.000911705 0.000198891
-3.77098e-029 4.68237e-032 3.61709e-032
-3.90416e-029 1.11277e-031 1.3404e-031
-6.51439e-029 1.03462e-031 1.76963e-031
0.635417 0.000400823 -0.000823554
0.635974 -0.000721382 -0.00267914
0.628627 0.00100201 -0.00262005
-4.06864e-016 -6.00825e-020 1.59967e-018
2.54344e-029 -3.27619e-019 -6.23298e-031
5.27421e-017 4.2714e-020 -3.13107e-019
0.175534 -0.150272 -0.0273348
0.157492 -0.234819 -0.0175938
0.135537 -0.194738 0.0211197
0.0658465 -0.270031 -0.00754039
0.205782 -0.215518 -0.0101986
0.171803 -0.148112 -0.00245197
0.106501 -0.269023 -0.00898998
0.153737 -0.247022 -0.00334252
0.128491 -0.190194 -0.0137908
0.118737 -0.225389 -0.0068014
-1.31605e-028 6.43544e-031 -1.84877e-031
-8.16885e-029 4.57692e-031 3.54335e-031
-9.76954e-029 9.70887e-031 -1.84408e-031
0.723183 -0.00649414 -0.00198549
8.00992e-019 -5.95878e-020 -2.14265e-021
7.23543e-019 -2.34231e-019 -1.54892e-021
0.658221 -0.0032912 -0.0029221
1.77425e-018 -8.07075e-021 3.52654e-031
0.617574 -0.00137561 -0.00400882
0.674293 -0.00610312 -0.000149132
2.58888e-029 1.88549e-029 -1.94112e-030
-1.12864 -1.00729 0.126775
8.75927e-030 6.65189e-030 -1.0432e-030
-0.916467 -0.726278 0.100136
-0.801093 -0.480147 0.0696051
2.13219e-015 1.66653e-015 -2.79165e-016
-1.1913 -0.823991 0.0982496
-0.795578 -0.674432 0.113521
-0.762661 -0.509742 0.0781508
-1.54702 -0.00541009 0.00543241
3.27961e-028 5.69818e-031 2.7507e-031
2.71514e-029 7.03924e-032 -2.49495e-031
-1.53906 0.000417578 -0.00187249
-1.10943 -0.00989648 -0.00252726
-1.04434 -0.0107893 0.00844828
-1.66708 0.000768535 -0.00232764
-4.71739e-029 2.24878e-031 9.33673e-031
-0.946864 -0.00352546 -0.00757295
-1.03413 0.00402728 0.000125826
-6.64575e-029 1.76699e-030 7.83854e-031
-2.5476e-029 1.6594e-030 5.85753e-031
-3.63024e-029 2.73954e-030 1.91525e-030
-9.60716e-017 4.30758e-018 2.42541e-018
-2.40942e-018 1.10157e-019 9.3408e-020
0.554151 -0.019561 -0.00758474
-3.38436e-017 2.22978e-018 1.64871e-018
0.523633 -0.0321114 -0.013281
0.52041 -0.032604 -0.0229636
-1.35407e-028 2.24667e-030 -4.80234e-031
0.660288 -0.00981759 0.000473909
0.568578 -0.0118655 0.00448122
0.611072 -0.00889967 0.00216267
0.791526 -0.0211237 -0.000719102
0.806462 -0.00850269 0.00136013
0.729369 -0.0157037 0.00106449
-3.35287e-029 3.79876e-030 -1.7225e-031
-6.08122e-029 2.33117e-030 1.65267e-031
1.16097e-016 -1.03391e-017 -2.05979e-018
1.00682e-016 -1.12878e-017 -1.51793e-018
0.532436 -0.0496989 -0.00175688
9.02142e-018 -5.33328e-019 -2.47064e-019
0.543447 -0.029286 -0.00884412
-1.09385e-028 -4.47801e-031 2.34634e-031
0.723779 0.00279414 -0.000257601
-7.43843e-029 -3.49412e-031 -5.63538e-032
0.541133 0.0011854 0.00173918
-1.98428e-016 -2.57023e-018 6.80863e-019
0.677564 0.00444054 -0.00190147
0.564826 0.00535343 0.00121053
0.760286 0.00268827 0.00231184
0.592627 0.00684794 -0.00267139
-3.12696e-029 2.10713e-031 -3.01765e-031
-8.84918e-029 1.76582e-031 -7.11773e-031
-1.03117e-028 8.22936e-031 -5.02223e-031
7.15661e-017 -1.31952e-018 2.17145e-018
-7.72281e-017 1.62719e-018 -1.90413e-018
0.553617 -0.00720483 0.013698
-4.98695e-017 1.05985e-018 -9.98098e-019
0.569598 -0.00768572 0.0104258
0.571379 -0.00975537 0.00607991
-1.2905e-029 3.39309e-029 2.02385e-030
0.184227 -0.886483 -0.0773184
-1.70687e-029 3.25339e-029 7.75342e-030
0.493362 -0.541233 -0.0697721
0.214796 -0.623207 -0.0239984
3.9336e-017 -7.17303e-017 7.26149e-018
0.28171 -0.630461 -0.0384595
0.206481 -0.54518 -0.0968148
0.360631 -0.777249 -0.109117
0.371044 -0.605922 -0.121883
-8.30832e-030 3.36914e-030 2.02659e-030
-7.64168e-029 6.35833e-030 1.97818e-030
-6.7198e-030 1.16747e-029 1.90802e-030
0.293784 -0.0725684 -0.0754043
0.276939 -0.0517461 -0.0487858
0.233511 -0.113946 -0.0868463
4.05698e-030 8.10849e-030 -6.86852e-030
4.14967e-017 -4.22186e-017 -2.75341e-017
-5.74523e-017 2.68616e-017 2.42109e-017
-4.16664e-029 3.58583e-030 -8.67866e-031
3.04737e-029 2.92843e-018 -1.11398e-029
1.33178e-016 -8.18601e-018 2.17842e-019
0.596091 -0.0475033 0.00782306
-0.812779 -2.77576 -0.0653063
1.50368e-029 4.54241e-029 1.49771e-030
-1.05117 -2.61623 -0.032171
3.26295e-029 1.12401e-028 1.25466e-030
-0.640312 -2.0826 -0.0725781
-0.985181 -2.75088 -0.0613783
-0.620765 -2.32867 -0.0555286
-0.789627 -2.27505 -0.0931903
1.18783e-016 3.9549e-016 1.53476e-017
-0.705208 -2.26021 -0.0481291
-0.943882 -2.61491 0.0926674
-1.08914 -2.86771 -0.00794392
-0.820855 -2.25256 0.256556
-0.638042 -2.83364 0.156014
-1.04874 -2.85679 0.0372704
-0.869498 -2.697 0.202305
-0.883102 -3.0192 0.0578612
-0.723078 -2.61741 0.33699
-1.01785 -2.90743 0.100343
0.725837 0.00143922 0.000880972
-1.64695e-028 -2.40071e-031 3.27563e-031
-7.16267e-029 -3.70804e-031 -6.72853e-032
0.734753 0.00106461 0.000234805
0.557819 0.00213628 0.00144537
0.541239 0.0049621 0.00197503
0.755042 0.00384297 0.0015367
7.97895e-029 -6.99224e-031 -1.20063e-029
0.703464 -0.000164597 -0.00129533
0.644646 0.00111718 0.0010072
-3.25895e-029 5.30463e-032 -6.041e-032
-8.17226e-029 3.1314e-031 -4.12579e-031
-1.46943e-028 -1.07217e-031 -4.39148e-031
2.52119e-029 6.46681e-030 1.16487e-029
0.553984 0.000117694 0.000436881
1.33537e-016 3.56142e-019 5.34297e-019
0.591376 -0.00210474 0.00504734
-5.82669e-017 3.36787e-020 -3.62528e-019
0.540144 -3.90855e-005 0.0027863
-4.58249e-029 -9.87745e-033 6.11315e-032
-8.66142e-029 -5.84992e-032 -1.34622e-031
0.716078 -0.000218908 -0.00021789
-1.45791e-028 2.75154e-031 -3.29898e-031
1.61121e-016 3.61289e-019 1.41967e-019
0.683674 0.000981187 -0.00058055
-1.28069e-016 5.86297e-020 -2.0383e-019
0.689539 0.00118573 0.0013661
5.84105e-017 8.74889e-020 3.38983e-019
0.65781 -0.00154086 0.00203681
0.713651 0.00239701 -0.00182901
-1.63581e-028 -4.38038e-031 2.78568e-031
0.816419 0.00212862 0.000420797
0.616313 0.00257807 -0.00428289
0.736372 0.0024653 0.000386252
0.658789 0.00138421 0.00123658
0.805398 0.00012029 0.000171914
0.671727 0.00298839 -0.000509181
2.74019e-029 5.10134e-031 -5.56239e-033
-0.771977 -0.0208527 0.00464579
1.9641e-016 3.68698e-018 -1.32804e-017
-1.0039 -0.015824 0.00466883
-1.45731 -0.0384585 -0.00168655
-1.44789e-030 4.55118e-029 -2.62841e-030
1.52377e-031 6.91441e-029 -4.47171e-030
0.0115747 -0.528002 0.0243809
-0.00318325 -0.517535 0.0248478
0.0149973 -0.46881 0.0313868
-2.27988e-018 9.93715e-017 -6.05801e-018
0.0109778 -0.477906 0.028892
-0.000284683 -0.100942 -0.000738923
-0.014225 -0.260705 -0.00927985
0.00151324 -0.100059 0.00165163
-0.00105812 -0.173324 0.00115036
-0.00417266 -0.165809 -0.00221965
-0.0011956 -0.0916379 -0.00025155
-0.00084006 -0.137651 -0.003546
-0.00171548 -0.171222 -0.00181542
-0.000625126 -0.199944 -0.00237708
0.00155643 -0.116986 -0.0023167
-0.00845316 -0.298109 -0.0144026
-0.00127777 -0.186886 -0.00643853
-0.00133031 -0.246666 -0.00458295
1.60354e-028 4.11954e-030 8.46146e-031
2.557e-028 8.21406e-030 -1.18813e-031
5.10604e-029 7.0494e-031 5.04525e-032
-1.24642 -0.0226853 -0.007173
-1.17679 -0.0306126 -0.00497654
-1.20206 -0.0203349 -0.00311748
-2.87779e-016 -2.73119e-019 5.93289e-020
-3.57536e-016 -7.48093e-018 -2.65823e-018
-3.42076e-016 -9.24114e-018 -2.17052e-018
5.34463e-030 2.14641e-029 -7.65205e-031
-0.98002 -2.54237 0.0294162
2.79195e-029 1.31597e-028 -7.78683e-031
1.08914e-029 5.28844e-029 -1.58152e-030
-0.693068 -2.80949 0.100819
-1.11902e-030 -1.89126e-029 -1.23347e-029
-3.57028e-016 -1.89061e-015 8.46404e-017
-0.616876 -2.72939 0.0446542
-0.600899 -2.71898 0.104482
-2.60151e-016 -1.4932e-015 4.80535e-017
-0.00840269 -0.354303 -0.0181733
-0.0114728 -0.335038 -0.0123864
-0.0070297 -0.360552 -0.0214111
0.00134187 -0.257521 0.00130511
-1.75576e-028 -5.11484e-032 7.37424e-031
-3.09419e-029 2.41142e-031 1.33463e-031
-1.00416e-028 3.08783e-030 -1.35012e-031
3.16658e-029 -9.27213e-030 -8.35184e-030