# vtk DataFile Version 2.0 
output.vtk, Created by Freefem++, via gregorio
ASCII
DATASET UNSTRUCTURED_GRID
POINTS 7451 double
-3.79965 2.23652 0.040848
-4.13429 2.05574 0.276253
-4.09122 2.24524 0.070091
-4.01836 2.27766 0.330071
-3.96697 2.14613 0.158551
-3.94543 2.24088 0.0554695
-3.90901 2.25709 0.185459
-4.11275 2.15049 0.173172
-4.07633 2.1667 0.303162
-4.05479 2.26145 0.200081
-4.81817 0.732763 -0.840268
-4.76136 0.37264 -0.736193
-5.12328 0.495929 -0.550642
-4.73872 0.559667 -0.434419
-4.78977 0.552702 -0.788231
-4.97072 0.614346 -0.695455
-4.77845 0.646215 -0.637344
-4.94232 0.434285 -0.643417
-4.75004 0.466153 -0.585306
-4.931 0.527798 -0.49253
-7.58244 -0.891248 -0.453516
-8 -0.559587 0.124298
-7.26059 -0.264226 0.250847
-7.58828 -0.999993 0.00381
-7.79122 -0.725418 -0.164609
-7.42152 -0.577737 -0.101334
-7.58536 -0.94562 -0.224853
-7.6303 -0.411906 0.187573
-7.79414 -0.77979 0.064054
-7.42444 -0.632109 0.127328
-5.46564 0.048234 0.998836
-5.51396 -0.351144 0.936321
-5.02851 -0.125769 0.598961
-5.56665 -0.148801 0.504295
-5.4898 -0.151455 0.967578
-5.24708 -0.0387675 0.798898
-5.51614 -0.0502835 0.751565
-5.27124 -0.238457 0.767641
-5.5403 -0.249972 0.720308
-5.29758 -0.137285 0.551628
-4.20269 -2.80441 0.102764
-3.63085 -2.57461 -0.287529
-4.13183 -2.29387 0.255347
-4.14432 -2.47254 -0.273935
-3.91677 -2.68951 -0.0923825
-4.16726 -2.54914 0.179055
-4.1735 -2.63848 -0.0855855
-3.88134 -2.43424 -0.016091
-3.88759 -2.52358 -0.280732
-4.13807 -2.38321 -0.009294
-6.25062 -0.085247 0.575431
-6.51584 -0.423084 -0.15939
-6.46019 0.447486 0.293263
-6.75561 -0.174737 0.413139
-6.38323 -0.254165 0.20802
-6.35541 0.181119 0.434347
-6.88822 -0.343655 0.0457285
-6.86039 0.09163 0.272055
-6.48801 0.012201 0.0669365
-4.88162 0.371746 0.655425
-4.51246 -0.112716 0.623981
-4.65723 0.09269 0.995695
-4.69704 0.129515 0.639703
-4.95507 0.122989 0.627193
-4.76942 0.232218 0.82556
-4.77049 -0.119243 0.611471
-4.58484 -0.010013 0.809838
-4.84287 -0.0165395 0.797328
-3.75099 1.20677 0.090288
-3.64118 0.745776 0.266863
-4.09568 0.790235 0.315934
-3.78936 1.07086 0.69071
-3.69609 0.976272 0.178575
-3.92333 0.998502 0.203111
-3.77017 1.13882 0.390499
-3.86843 0.768006 0.291399
-3.71527 0.908319 0.478787
-3.94252 0.930549 0.503322
-2.18572 0.40145 0.915881
-1.75478 0.245881 0.526965
-1.94554 -0.013967 0.999902
-1.76886 0.356252 0.93439
-1.97025 0.323665 0.721423
-2.06563 0.193741 0.957891
-1.97729 0.378851 0.925135
-1.85016 0.115957 0.763433
-1.76182 0.301067 0.730678
-1.8572 0.171143 0.967146
-5.06116 0.824959 0.710182
-4.88551 0.773989 0.80113
-4.92155 0.772883 0.437198
-5.01596 0.602336 0.857802
-4.97333 0.799474 0.755656
-4.99135 0.798921 0.57369
-5.03856 0.713647 0.783992
-4.90353 0.773436 0.619164
-4.95074 0.688163 0.829466
-4.96876 0.687609 0.6475
-2.34262 2.51752 0.051733
-2.4672 2.85727 -0.311185
-2.29554 2.81673 0.086134
-2.65762 2.74748 0.16058
-2.40491 2.6874 -0.129726
-2.31908 2.66712 0.0689335
-2.50012 2.6325 0.106157
-2.38137 2.837 -0.112526
-2.56241 2.80238 -0.0753025
-2.47658 2.7821 0.123357
-3.50303 -3.76846 -0.636668
-3.49422 -3.29308 -1.15018
-3.31427 -3.71149 -1.25136
-2.90724 -3.34218 -0.858121
-3.49863 -3.53077 -0.893424
-3.40865 -3.73997 -0.944014
-3.20514 -3.55532 -0.747394
-3.40425 -3.50228 -1.20077
-3.20073 -3.31763 -1.00415
-3.11076 -3.52683 -1.05474
-4.0054 2.49156 -0.125899
-3.5956 2.50054 -0.194198
-3.83412 2.54803 0.0159
-3.8005 2.49605 -0.160049
-3.90253 2.36404 -0.0425255
-3.91976 2.5198 -0.0549995
-3.69763 2.36853 -0.076675
-3.71486 2.52428 -0.089149
-3.81689 2.39228 0.028374
-3.73452 -3.68531 -1.05781
-3.52439 -3.6984 -1.15459
-3.61437 -3.4892 -1.104
-3.61877 -3.72688 -0.84724
-6.37864 0.944563 0.328331
-6.25891 0.813305 0.581838
-6.65332 0.772267 0.635298
-6.31878 0.878934 0.455085
-6.41941 0.696025 0.310797
-6.51598 0.858415 0.481815
-6.35955 0.630395 0.43755
-6.45612 0.792786 0.608568
-6.55675 0.609877 0.46428
1.62066 -0.841518 -0.540229
1.89324 0.238579 -0.195511
2.01627 -0.690819 -0.723027
2.25185 -0.211859 0.261412
1.75695 -0.30147 -0.36787
1.81846 -0.766169 -0.631628
1.93625 -0.526689 -0.139408
1.95475 -0.22612 -0.459269
2.07254 0.01336 0.0329505
2.13406 -0.451339 -0.230807
-2.56949 2.06853 0.305158
-2.91403 1.60744 0.564909
-3.02709 2.08175 0.021586
-2.87501 2.07662 0.630995
-2.74176 1.83799 0.435033
-2.79829 2.07514 0.163372
-2.72225 2.07258 0.468077
-2.97056 1.8446 0.293247
-2.89452 1.84203 0.597952
-2.95105 2.07919 0.32629
-5.39985 0.358755 0.933432
-5.34934 0.453264 0.543553
-5.56264 0.558471 0.829524
-5.70805 0.297641 0.954678
-5.37459 0.40601 0.738492
-5.48124 0.458613 0.881478
-5.55395 0.328198 0.944055
-5.45599 0.505868 0.686538
-5.52869 0.375452 0.749116
-5.63535 0.428056 0.892101
-4.17913 0.323834 -0.696515
-4.36183 0.516245 -0.417662
-4.60784 0.019305 -0.528365
-4.46586 0.364911 -0.72315
-4.27048 0.42004 -0.557088
-4.39349 0.17157 -0.61244
-4.3225 0.344372 -0.709832
-4.48483 0.267775 -0.473013
-4.41384 0.440578 -0.570406
-4.53685 0.192108 -0.625757
-5.9377 0.438799 -0.558905
-5.87927 0.529091 -0.848565
-6.25926 0.555743 -0.831354
-6.07929 0.245277 -0.969453
-5.90849 0.483945 -0.703735
-6.09848 0.497271 -0.695129
-6.00849 0.342038 -0.764179
-6.06927 0.542417 -0.839959
-5.97928 0.387184 -0.909009
-6.16928 0.40051 -0.900404
-3.64743 2.72944 0.180305
-3.74077 2.63873 0.0981025
-3.72354 2.48298 0.110576
-3.62151 2.61499 -0.0069465
-3.98168 0.388062 0.141859
-3.76543 0.320245 0.603448
-3.81143 0.566919 0.204361
-3.70331 0.533011 0.435156
-4.03868 0.589149 0.228897
-3.87356 0.354154 0.372653
-3.93055 0.55524 0.459691
-6.17342 0.027823 -0.593282
-6.59748 0.255766 -0.966739
-6.35964 0.547779 -0.240473
-6.21634 0.291783 -0.712318
-6.42837 0.405755 -0.899047
-6.30945 0.551761 -0.535914
-6.38545 0.141794 -0.78001
-6.26653 0.287801 -0.416878
-6.47856 0.401772 -0.603606
-5.98474 0.742767 -0.66955
-5.96122 0.590783 -0.614227
-6.122 0.649255 -0.750452
-5.93201 0.635929 -0.759057
-5.86659 0.345457 -0.129882
-5.96054 -0.099592 -0.035866
-6.02 0.18664 -0.361582
-6.11312 0.446618 -0.185177
-5.91357 0.122933 -0.082874
-6.06698 -0.0358845 -0.314574
-6.16009 0.224094 -0.13817
-1.10421 0.363269 -0.931684
-0.773878 0.737644 -0.67519
-0.520452 0.269543 -0.962988
-0.384634 0.008888 -0.353445
-0.939043 0.550457 -0.803437
-0.812329 0.316406 -0.947336
-0.74442 0.186079 -0.642564
-0.647165 0.503594 -0.819089
-0.579256 0.373266 -0.514317
-0.452543 0.139215 -0.658216
-2.85287 -3.00249 -1.21636
-3.23054 -2.92385 -1.196
-3.06719 -3.3306 -1.25351
-2.88006 -3.17233 -1.03724
-3.06889 -3.13301 -1.02706
-2.98722 -3.33639 -1.05581
-3.0417 -2.96317 -1.20618
-2.96003 -3.16654 -1.23493
-3.14886 -3.12722 -1.22475
-3.38618 -2.05134 -0.098565
-2.37808 -2.56123 -0.134541
-2.49252 -2.47812 0.422472
-2.41131 -1.89586 0.044632
-2.88213 -2.30628 -0.116553
-2.93935 -2.26473 0.161954
-2.89875 -1.9736 -0.0269665
-2.4353 -2.51967 0.143966
-2.39469 -2.22855 -0.0449545
-2.45192 -2.18699 0.233552
-1.85713 -0.413967 0.42138
-1.65927 -0.390905 0.920431
-1.2503 -0.077569 0.384148
-1.80595 -0.084043 0.474172
-1.70702 -0.072512 0.723698
-1.50254 0.084156 0.455557
-1.7582 -0.402436 0.670905
-1.55371 -0.245768 0.402764
-1.45478 -0.234237 0.652289
-2.09043 2.55218 0.167395
-2.0659 2.66009 -0.048555
-2.19298 2.68445 0.126765
-2.18072 2.73841 0.0187895
-2.07816 2.60614 0.05942
-2.21652 2.53485 0.109564
-2.20426 2.58881 0.001589
-4.01665 2.44382 0.136481
-3.97233 2.67361 0.084512
-3.92539 2.49592 0.0761905
-3.99449 2.55872 0.110496
-4.01103 2.46769 0.005291
-3.90323 2.61082 0.050206
-3.98887 2.58259 -0.0206935
-3.92754 1.80484 -0.220103
-4.28096 1.83407 -0.225431
-4.13592 1.88983 -0.461486
-4.146 2.03152 -0.278406
-4.10425 1.81945 -0.222767
-4.03173 1.84734 -0.340795
-4.03677 1.91818 -0.249254
-4.20844 1.86195 -0.343458
-4.21348 1.9328 -0.251918
-4.14096 1.96068 -0.369946
-4.04038 -5 0.949212
-3.62468 -5 1.26221
-3.84559 -4.54287 1.07336
-3.71487 -5 0.728948
-3.83253 -5 1.10571
-3.94299 -4.77144 1.01129
-3.87763 -5 0.83908
-3.73513 -4.77144 1.16779
-3.66977 -5 0.99558
-3.78023 -4.77144 0.901156
-1.37334 0.812082 -0.583544
-0.975724 0.961208 -0.275823
-1.19336 -0.166381 -0.273753
-1.17453 0.886645 -0.429683
-1.07361 0.774863 -0.629367
-1.28335 0.32285 -0.428648
-0.874801 0.849426 -0.475506
-1.08454 0.397413 -0.274788
-0.983618 0.285631 -0.474471
-3.83515 -1.82017 -0.741539
-3.34976 -1.58414 -0.592596
-3.50394 -2.07825 -1.02313
-3.59245 -1.70215 -0.667067
-3.66955 -1.94921 -0.882335
-3.61067 -1.93575 -0.420052
-3.42685 -1.83119 -0.807863
-3.36797 -1.81774 -0.345581
-3.44506 -2.06479 -0.560848
-2.72946 0.769161 0.094533
-2.75119 0.681139 -0.326037
-2.98528 1.02631 -0.281501
-3.08113 0.734324 -0.34324
-2.74032 0.72515 -0.115752
-2.85737 0.897737 -0.093484
-2.90529 0.751742 -0.124353
-2.86823 0.853726 -0.303769
-2.91616 0.707731 -0.334639
-3.03321 0.880319 -0.31237
-2.94023 -2.47675 -0.674772
-3.14499 -2.03044 -0.633684
-3.22209 -2.2775 -0.848951
-3.16321 -2.26404 -0.386669
-3.03914 -4.25341 0.579285
-2.64287 -3.80807 0.20828
-2.47531 -4.18593 0.714333
-2.97264 -3.41482 0.618231
-2.84101 -4.03074 0.393783
-2.75723 -4.21967 0.646809
-3.00589 -3.83412 0.598758
-2.55909 -3.997 0.461307
-2.80776 -3.61144 0.413255
-2.72397 -3.80037 0.666282
-2.39684 -0.595487 -0.803365
-1.98884 -0.54749 -0.836812
-2.24172 -0.466498 -0.098067
-2.21295 -0.01831 -0.514797
-2.19284 -0.571489 -0.820088
-2.31928 -0.530992 -0.450716
-2.3049 -0.306899 -0.659081
-2.11528 -0.506994 -0.46744
-2.1009 -0.2829 -0.675804
-2.22734 -0.242404 -0.306432
-3.36239 -4.55484 -1.31864
-3.11171 -4.25429 -0.873787
-2.86199 -4.55394 -1.36046
-2.79118 -5 -0.96439
-3.23705 -4.40456 -1.09621
-3.11219 -4.55439 -1.33955
-3.07678 -4.77742 -1.14151
-2.98685 -4.40411 -1.11712
-2.95144 -4.62714 -0.919088
-2.82658 -4.77697 -1.16243
-3.88203 2.65205 -0.416886
-3.48121 2.84727 -0.340672
-3.82273 3 -0.474998
-3.72541 2.76868 -0.627028
-3.68162 2.74966 -0.378779
-3.85238 2.82603 -0.445942
-3.80372 2.71037 -0.521957
-3.65197 2.92364 -0.407835
-3.60331 2.80798 -0.48385
-3.77407 2.88434 -0.551013
[...]
POINT_DATA 7451
 
FIELD FieldData 2
velocity 3 7451 double
-0.122682 -0.3479 0.00972488
1.57172e-030 3.55024e-030 -1.98661e-031
4.55649e-031 1.24256e-030 -5.867e-032
1.31491e-030 3.53464e-030 -1.81366e-031
-0.0835566 -0.204074 0.0116188
-0.0727371 -0.200087 0.00939838
-0.0804782 -0.232894 0.012459
-1.87748e-018 -4.55191e-018 3.19424e-019
5.68159e-018 1.41568e-017 -1.12201e-018
1.91437e-029 -8.21808e-030 -4.46336e-030
9.07783e-030 3.02141e-030 -2.07636e-031
-0.41145 -0.109203 0.00111576
-0.627465 -0.142512 0.00758329
-0.707523 -0.230724 0.00634382
-0.227314 -0.0769123 0.00709491
-0.306678 -0.0931318 0.00992947
-0.405927 -0.146846 0.00948864
-0.535725 -0.134239 0.00707521
-0.593512 -0.174482 0.00544314
-0.677058 -0.192563 0.00860074
9.7459e-029 -3.02168e-031 2.81184e-032
-0.848825 0.00733321 -0.000630267
-1.1073 5.30064e-005 -0.000611823
5.62718e-029 -2.26958e-031 5.4366e-032
-0.552795 0.00344791 7.95898e-005
-0.837019 1.62522e-005 -0.00253514
-1.34532e-016 2.51151e-019 -3.15649e-019
-1.00957 0.00129324 -7.98442e-005
-0.479974 0.00635663 -0.000800131
-0.743198 0.0019267 -0.00017938
3.31565e-029 3.42593e-030 5.86025e-032
2.18289e-029 1.39205e-030 2.81539e-031
-0.701418 -0.105075 -0.0136548
-0.886613 -0.0624293 -0.00506791
-1.05872e-016 -6.61263e-018 -1.01794e-018
-0.423384 -0.0481481 -0.00388381
-0.527131 -0.0335289 -0.00348423
-0.404128 -0.0313125 -0.00752798
-0.506255 -0.023245 -0.00486608
-0.799681 -0.0860447 -0.00844902
-4.24046e-030 -6.492e-029 2.04163e-030
0.0260201 0.422692 0.00304095
-4.63163e-030 -7.72824e-029 2.5656e-030
-8.15376e-031 -9.70826e-030 -2.21516e-033
0.0234346 0.286602 -0.00365424
-6.26454e-017 -7.03452e-016 1.83721e-017
-3.9675e-018 -4.00667e-017 5.46804e-019
0.0265489 0.339922 -0.00566851
0.0219259 0.251442 0.000716152
-5.70303e-017 -6.11101e-016 1.04089e-017
-0.832499 -0.0163672 -0.00239236
-1.00559 -0.00958989 -0.00226314
-0.905179 -0.0130038 -0.000898015
-1.01273 -0.00261287 -0.000990722
-1.13466 -0.0173428 -0.00319068
-0.987074 -0.017246 -0.0022825
-1.11853 -0.0046784 -0.00387914
-1.17268 -0.00249955 -0.000470992
-1.27305 -0.0170149 -0.00154829
-0.564439 -0.18661 0.00451624
-0.570847 -0.10196 -0.0200206
1.88653e-029 5.15648e-030 1.98171e-031
-0.624612 -0.165492 -0.00817766
-0.690133 -0.154625 -0.00383551
-0.309915 -0.108606 0.00313965
-0.635881 -0.112155 -0.01874
-0.342408 -0.0926918 -0.0101541
-0.390456 -0.0839169 -0.00820123
-0.430959 -0.455909 -0.0225818
-0.467287 -0.268349 -0.0507651
-0.606835 -0.338612 -0.0150607
-0.239908 -0.301609 -0.000819194
-0.465911 -0.38821 -0.0396063
-0.520516 -0.400244 -0.0202961
-0.394688 -0.420013 -0.0165373
-0.554752 -0.31247 -0.0327918
-0.387459 -0.330015 -0.0249745
-0.423755 -0.336495 -0.00807319
-1.72995e-029 -6.57064e-030 1.1989e-030
0.348704 0.0527363 -0.00676124
-2.07668e-029 -6.27745e-030 -3.75862e-031
-4.39139e-030 -2.39449e-031 2.99503e-032
0.188199 0.0303113 -0.00646577
6.02857e-017 6.29884e-018 2.21504e-018
3.22212e-018 2.35962e-019 -3.36925e-020
0.213269 0.0179832 -0.00151841
0.199033 0.0116465 0.000859143
-6.92623e-017 -9.49363e-019 -7.92131e-019
2.49948e-017 1.16086e-017 -6.92277e-019
2.77911e-030 1.26683e-030 -5.27204e-032
-0.509054 -0.210908 0.00887931
2.9687e-030 1.21305e-030 -5.49953e-032
1.25032e-017 6.25896e-018 -3.85703e-019
-0.286744 -0.126796 0.00663692
9.83767e-017 4.41342e-017 -3.51697e-018
-0.286893 -0.1384 0.0076467
1.5242e-016 7.7877e-017 -3.35205e-018
-0.316429 -0.135069 0.00572225
-0.0332459 -0.23664 -0.0137436
-0.0204411 -0.251953 -0.0089052
-0.0126039 -0.236087 -0.0070898
-0.0524424 -0.499206 -0.0155367
-0.0290277 -0.266817 -0.0113089
-0.0231836 -0.237461 -0.0105972
-0.04568 -0.378619 -0.0166064
-0.0188102 -0.269318 -0.00958028
-0.0382133 -0.394903 -0.0125913
-0.0321832 -0.38318 -0.0119498
0.0111558 0.272832 0.00822106
-6.47486e-031 -2.10908e-029 -1.06853e-030
-3.23961e-031 -1.61715e-029 -9.10767e-031
-0.00171428 0.229128 0.0130037
0.00635794 0.146547 0.00815703
0.00547825 0.143722 0.00817339
0.00464898 0.278884 0.0117994
2.22522e-029 2.25656e-030 6.46522e-029
0.0021073 0.137157 0.00928929
0.00106561 0.11822 0.00835421
9.70862e-031 3.57531e-030 -1.02102e-031
-0.0908197 -0.371614 0.00399424
-0.0486074 -0.229787 0.00506518
-0.0581879 -0.233622 0.00636768
-0.0604395 -0.19444 0.00628552
-0.0276817 -0.117391 0.00345778
-0.110649 -0.372296 0.00598057
-0.0762603 -0.329975 0.00577035
-0.082603 -0.287459 0.00770889
-2.62122e-031 -4.74209e-030 -2.33166e-031
-3.60727e-018 -7.0083e-017 -5.19594e-018
3.53515e-018 6.2671e-017 4.5513e-018
0.0076106 0.138618 0.00675596
1.03423e-029 1.76733e-031 1.82243e-033
1.37023e-029 2.2903e-031 1.6042e-032
1.78764e-029 1.90225e-031 4.34874e-032
6.95826e-017 1.53911e-018 8.32671e-020
-0.521121 -0.0128287 -0.000488621
-4.9929e-030 -4.53002e-029 -2.28817e-029
-0.511601 -0.00650523 -0.000654613
8.09525e-017 -1.84283e-019 1.71737e-019
-0.520666 -0.00587204 -0.00102415
-1.50872e-028 3.80087e-031 -7.29611e-032
0.485775 0.000581704 0.000721563
-5.57883e-029 3.77188e-032 -1.3144e-031
0.473267 -0.00219438 0.00130712
0.416423 -0.00125907 0.000283228
-6.67837e-017 3.32696e-020 -3.04847e-019
0.375783 -0.000215418 0.00136202
0.39394 0.000709827 0.000857792
0.536021 -0.00104103 0.00163512
0.397324 -0.00114903 0.00174037
-0.0806774 -0.331098 -0.0294824
-0.119311 -0.346956 -0.0350574
-0.171435 -0.534456 -0.0265018
-0.0915672 -0.417844 -0.0220888
-0.107562 -0.366481 -0.0354621
-0.135227 -0.483393 -0.0343404
-0.0942878 -0.404967 -0.030489
-0.179212 -0.520973 -0.0387201
-0.108995 -0.389742 -0.0291287
-0.152901 -0.554415 -0.0321671
3.12804e-030 4.12556e-031 -6.8238e-032
-0.669572 -0.123943 0.00998232
6.76456e-030 5.41935e-031 -1.18232e-031
3.00336e-029 2.00429e-030 -1.5321e-031
-0.377234 -0.0499027 0.0102304
-9.80258e-017 -7.72644e-018 3.39242e-018
1.36397e-016 6.12592e-018 -3.93054e-018
-0.364796 -0.0441678 0.00885446
-0.380748 -0.0310754 0.00695596
-2.22379e-017 -6.93789e-019 7.72103e-019
-0.404176 -0.101645 -0.014541
-0.68768 -0.233305 -0.0112845
-0.729727 -0.112718 -0.00684345
-0.409455 -0.117949 -0.00507392
-0.567749 -0.169799 -0.0140242
-0.583493 -0.118158 -0.0114786
-0.411421 -0.114078 -0.00957922
-0.744325 -0.174819 -0.0114988
-0.579408 -0.181469 -0.00652654
-0.594376 -0.127343 -0.0063309
-0.628022 -0.0135443 0.0019664
3.36546e-030 3.93142e-032 -7.11071e-033
2.99807e-029 3.64388e-031 -1.54804e-031
1.38033e-029 1.85202e-031 -2.82273e-032
-0.33841 -0.003343 0.00131455
-0.335949 -0.00628275 0.00284685
-0.366544 -0.00422288 0.00204058
-2.4004e-016 -1.90087e-018 2.1171e-018
-1.15723e-016 -2.34946e-019 1.05334e-018
-1.10878e-029 -2.14942e-029 4.8254e-029
-0.058926 -0.397824 0.00555256
-0.0558677 -0.321051 0.00572574
-0.0868643 -0.369903 0.00682381
-0.0795452 -0.413308 0.00423104
-0.742568 -0.156789 -0.0446056
-0.409602 -0.0381397 -0.0219339
-0.605156 -0.208143 -0.0504743
-0.464664 -0.147458 -0.0412865
-0.695885 -0.266288 -0.0318614
-0.615612 -0.0996555 -0.0381802
-0.547938 -0.211479 -0.0234765
-0.812887 -0.0103045 0.000551412
-3.6733e-017 4.34491e-020 8.29441e-020
-0.813251 -0.00909154 0.00354403
-0.508107 -0.00732729 0.00302065
-2.51175e-029 -3.07062e-029 6.0568e-029
-0.50816 -0.00580908 0.00457737
-0.461646 -0.00796838 0.00171945
-0.944295 -0.0126218 0.00308028
-0.591909 -0.00285246 0.00304206
5.43897e-030 9.47363e-032 -8.92092e-033
-0.342998 -0.00642878 0.0020504
-7.74198e-017 -2.6376e-018 1.73819e-018
-1.02246e-016 -8.34785e-019 6.62836e-019
-1.11596 -0.0513992 0.00295257
-1.25076 -0.0418302 -0.00322371
-1.06253 -0.0265964 0.00072555
-0.98093 -0.022434 0.00354948
-1.24864 -0.0507361 0.000249907
-1.14125 -0.0262716 -0.00144853
-1.18974 -0.0274308 0.00150365
1.98568e-017 -1.52906e-019 -3.13893e-019
-4.92083e-029 4.69257e-031 4.75261e-031
-1.82426e-029 5.42009e-032 9.51449e-032
0.476889 -0.00456479 -0.000860763
-3.05464e-017 2.81422e-019 4.4318e-019
1.35515e-029 -3.25429e-029 9.83754e-029
0.291154 -0.00292735 -0.00291549
-3.14682e-017 1.02646e-019 3.20716e-019
0.325795 -0.00363108 -0.00231906
0.294222 0.000104037 -0.00200021
7.8073e-032 -7.35452e-030 -5.75475e-031
-3.21687e-031 -2.25859e-029 -1.36535e-030
-5.58077e-033 -2.72466e-030 -2.03255e-031
-0.00125148 0.120532 0.00925985
0.00196473 0.127513 0.0101238
2.2371e-005 0.116242 0.00813984
-7.23245e-019 -5.92776e-017 -5.72068e-018
-8.25939e-020 2.71362e-017 2.41981e-018
-1.2631e-018 -5.73723e-017 -5.2233e-018
0.0214692 0.695206 -0.00769721
-0.0251492 0.503807 -0.00174757
-0.0275412 0.71497 -0.0389653
-0.0277209 0.647402 -0.0187811
-0.0071413 0.737869 -0.0050718
-0.00368382 0.892059 -0.0277449
-0.00633137 0.8397 -0.0165576
-0.0276636 0.656964 -0.0171337
-0.0266224 0.577349 -0.00763304
-0.0289902 0.709189 -0.030366
0.366503 0.161921 0.0246978
-2.66593e-029 -1.76666e-030 -1.99017e-031
0.456321 0.015281 -0.00231923
0.408637 0.106166 -0.000213531
0.246271 0.00821751 -0.000845505
0.42257 0.0334913 -0.00200838
0.195142 0.00561318 0.00937341
0.412508 0.0528396 -0.00103795
0.268155 0.00136834 -0.0029773
-1.95506e-018 -2.71914e-017 -1.22842e-018
1.11109e-031 1.26203e-030 6.18509e-032
-0.00755337 -0.120251 -0.00453862
-0.00808522 -0.115174 -0.00401407
-4.1463e-018 -5.21279e-017 -2.2239e-018
-0.0166168 -0.129846 -0.00752448
-0.0152943 -0.121901 -0.00788639
-7.44299e-018 -3.01157e-017 1.1435e-018
2.85796e-031 1.81371e-030 -3.90315e-032
-0.0312582 -0.133498 0.00430358
1.25139e-017 6.6472e-017 -1.65411e-018
2.05729e-029 -6.77225e-030 -1.21233e-031
-0.0212243 -0.131077 0.00195374
2.18513e-017 1.18638e-016 -2.557e-018
-0.18422 -0.295582 0.0083222
1.48674e-030 2.07778e-030 -1.17712e-031
7.00654e-031 1.12378e-030 -5.7703e-032
5.25982e-031 9.14169e-031 -4.85335e-032
-0.113118 -0.17021 0.00972947
-0.103336 -0.165085 0.00851069
-0.100257 -0.169954 0.00883509
-5.15446e-017 -7.7727e-017 5.83625e-018
-2.86828e-016 -4.55022e-016 3.83785e-017
-1.98032e-016 -3.3262e-016 2.34207e-017
-1.35762e-031 -4.19147e-030 1.87827e-031
-2.14043e-031 -1.2511e-029 5.99175e-031
-6.48134e-031 -2.11165e-029 1.20123e-030
0.0101651 0.415644 -0.0154274
-3.65435e-018 -1.72275e-016 8.25164e-018
-5.88448e-019 -1.94202e-017 1.03911e-018
0.006577 0.251808 -0.0099941
9.14333e-019 3.72506e-017 -7.5853e-018
0.00616426 0.317064 -0.0150132
0.00911141 0.306033 -0.0164479
-5.68598e-029 -5.75079e-032 1.26958e-030
-5.97221e-029 3.85323e-031 6.40136e-031
0.480642 -0.0115245 0.000128373
2.52751e-017 3.6131e-020 -6.34879e-019
-2.74948e-017 1.5485e-019 6.18476e-019
0.383882 -0.00313508 -0.00818618
-6.24974e-017 5.40775e-019 6.12424e-019
0.420286 -0.00182115 -0.00591273
0.370333 -0.0055214 -0.00330932
5.95043e-020 9.02209e-019 4.46376e-020
0.0071604 0.401441 0.0163934
-2.1794e-030 -6.09672e-029 -2.13315e-030
0.00821948 0.219442 0.0106489
-4.29267e-018 -7.14626e-017 -9.64054e-018
0.0195678 0.389111 0.00872831
0.00753048 0.188009 0.012509
0.0147663 0.580043 0.00803707
0.0157168 0.380572 0.013929
0.0202126 -0.0573583 -0.0513142
0.0192369 -0.0110378 -0.033848
-0.128926 -0.209405 -0.0355055
-0.135588 -0.100861 -0.0472303
0.0179591 -0.0449682 -0.0472069
-0.0619248 -0.160729 -0.0467096
-0.0627315 -0.103622 -0.0564141
-0.0454784 -0.0933616 -0.0320854
-0.0513921 -0.0538238 -0.0410198
-0.12641 -0.158594 -0.0419146
-0.00171412 0.36705 0.0170155
0.00689517 0.412049 0.0172407
0.00721913 0.227578 0.0137703
0.00902112 0.571314 0.0103079
0.000653695 0.670611 -0.0328959
-0.0158157 0.658087 -0.018781
-0.0173292 0.547242 -0.0345588
-0.000621197 0.748822 -0.0475486
-0.00824774 0.71268 -0.0263657
-0.00975835 0.666416 -0.0366017
0.000349019 0.71084 -0.0410155
-0.0187289 0.647019 -0.0277493
-0.0102625 0.747119 -0.030705
-0.0128489 0.68279 -0.0424135
1.78346e-017 5.38414e-017 3.75885e-018
5.69315e-017 1.41184e-018 9.72634e-020
0.401706 0.439064 -0.021188
0.302101 0.107251 -0.0259528
1.39461e-029 3.76099e-029 4.25286e-029
0.265808 0.292855 -0.0147584
0.201737 0.112099 -0.0179739
0.29954 0.167813 -0.0169245
0.231688 0.0572806 -0.0124522
0.385048 0.249876 -0.0291419
8.05971e-019 2.11664e-017 1.64049e-018
0.00199015 0.20975 0.00805343
1.93952e-031 -1.36597e-029 -4.90969e-031
-0.00166609 0.156062 0.00230031
0.00231242 0.1001 0.00570741
1.34419e-018 3.34753e-017 4.46672e-018
0.000570737 0.0895068 0.00313968
-5.1341e-005 0.0999294 0.0053203
-0.000661647 0.186749 0.0043703
-0.00105796 0.0784507 0.00273048
6.36312e-031 3.44114e-030 -7.18966e-032
-0.0414828 -0.322516 0.00194905
5.91948e-031 1.10348e-029 -1.05609e-031
1.01594e-030 5.03202e-030 -8.99741e-032
-0.0278617 -0.190373 0.0036725
-2.86176e-017 -2.4311e-016 5.4505e-018
2.28838e-029 -4.98246e-030 1.59556e-029
-0.0179899 -0.184198 0.0020845
-0.0258304 -0.176735 0.00175557
-2.29087e-017 -1.98203e-016 2.84442e-018
0.516977 -0.000285499 -0.000178824
-2.07984e-029 2.61252e-032 -4.52715e-033
-2.1625e-029 1.36628e-032 4.21674e-033
-3.68372e-029 5.06422e-032 6.68884e-033
0.347379 0.000135828 -8.72797e-005
0.349 -0.00013234 -0.000229906
0.346937 -0.000302325 6.101e-005
1.45706e-029 -6.49425e-020 -1.07793e-029
1.32121e-029 4.18589e-021 -1.11297e-020
2.53709e-017 6.87897e-029 -1.42041e-030
0.201899 0.745174 -0.0467288
-0.0111374 0.790376 -0.0292646
-0.0170154 0.927748 -0.0901366
0.0361043 0.707502 -0.00575615
0.0921055 0.893223 -0.0539465
0.0691163 0.878602 -0.0778157
0.136424 0.836546 -0.0402881
-0.0175175 0.972229 -0.0674635
0.0525128 0.809011 -0.0199916
0.0435055 0.976179 -0.0585344
-7.79427e-029 1.11555e-031 2.18952e-032
-4.58875e-029 8.6753e-032 8.84865e-032
-5.69856e-029 4.55488e-031 -5.37725e-032
0.472782 -0.00385979 0.000154412
1.97215e-017 -5.74813e-023 -9.77163e-020
1.96599e-017 -4.40792e-022 -4.70956e-022
0.373154 4.94846e-005 -0.00126321
9.07706e-019 -2.10289e-022 -6.80009e-022
0.33312 0.000530725 -0.000987774
0.3792 -0.00257088 0.000708438
8.43881e-030 4.92297e-030 -2.57836e-031
-0.394508 -0.240252 0.0117471
2.87338e-030 1.70688e-030 -1.07318e-031
-0.268653 -0.17254 0.0101742
-0.260659 -0.139668 0.00815155
5.73992e-016 3.87265e-016 -2.92446e-017
-0.451956 -0.228861 0.0102403
-0.237571 -0.156044 0.0114412
-0.250296 -0.137801 0.00815039
-0.841055 0.00094799 0.00603191
1.84563e-028 -2.408e-031 -2.71167e-031
1.37142e-029 -8.96649e-032 -1.71503e-031
-0.839993 0.00521213 0.00298639
-0.556577 0.00279143 0.00282107
-0.501233 -0.000362392 0.00637555
-0.92993 0.00411556 0.0036284
-2.36965e-029 3.36102e-029 6.25375e-029
-0.47337 0.00440429 0.00198017
-0.50583 0.00647637 0.00357581
-3.71038e-029 3.21897e-031 1.88733e-031
-1.35863e-029 1.87174e-031 1.5359e-031
-2.09897e-029 -9.28849e-031 -9.6855e-033
-4.55116e-017 1.95317e-018 3.11991e-019
-1.17772e-018 1.65196e-020 3.45735e-020
0.297328 -0.00205492 -0.00130235
-1.6152e-017 3.88864e-019 5.51612e-019
0.274427 -0.00505023 -0.00221267
0.283784 0.00474465 -0.0102186
-8.14312e-029 1.34325e-030 -3.08919e-031
0.381384 -0.00638935 0.000708142
0.319126 -0.00977648 0.0021456
0.345704 -0.00696796 0.000834168
0.530742 -0.00836973 0.000115162
0.548496 -0.00563453 -8.72646e-005
0.483056 -0.0104348 -0.000469464
-1.77886e-029 -2.25734e-031 3.0719e-032
-3.34024e-029 4.08619e-031 -2.07622e-032
5.36072e-017 -2.49942e-018 -2.97089e-019
4.68887e-017 -1.89237e-018 -4.47361e-019
0.278612 -0.00245663 -0.000747398
4.20029e-018 -2.04394e-019 -4.84351e-020
0.286444 -0.00349956 -0.00278354
-6.23183e-029 2.63818e-031 2.53343e-031
0.472434 0.00157551 -0.000704557
-4.14526e-029 1.46991e-031 1.07288e-031
0.289142 -0.00154846 -0.000825779
-9.73924e-017 1.63089e-019 6.98364e-019
0.370109 -0.00306445 -0.00186889
0.300788 -0.000111338 -0.000780769
0.495276 -0.00159134 -0.000800173
0.31779 0.000605436 -0.00218242
-1.66653e-029 1.25982e-031 -1.34228e-031
-4.90975e-029 7.37185e-033 -3.2061e-031
-5.71756e-029 3.11177e-031 -2.7643e-031
3.33337e-017 -5.2722e-019 8.29234e-019
-3.58631e-017 6.0725e-019 -7.95159e-019
0.292278 -0.0038587 0.00573519
-2.34273e-017 3.25309e-019 -3.84937e-019
0.303959 -0.00292611 0.0038641
0.303707 -0.00332318 0.00288593
1.4121e-030 -8.22915e-030 4.51381e-031
-0.180425 0.117416 -0.0216412
1.95348e-030 -3.77275e-030 5.77549e-031
0.0750513 0.217334 -0.0290101
-0.0600121 0.0856895 -0.00565561
-1.36501e-017 -6.15775e-018 2.65327e-019
0.00880786 0.137791 -0.00697549
-0.0681234 0.0435083 -0.00511652
-0.0686632 0.180826 -0.0235652
-0.00392097 0.0772629 -0.00787243
-6.71574e-030 -3.72881e-030 -8.47156e-031
-5.41232e-029 -7.4317e-030 -1.13264e-030
-9.20116e-030 -2.002e-029 2.63875e-031
0.20489 0.0454035 0.0362059
0.243232 0.0879535 0.0219785
0.256232 0.198417 0.0516651
2.84148e-030 5.26944e-029 -3.25749e-029
5.60622e-017 5.33153e-017 1.30256e-017
-6.9719e-017 -4.52891e-017 -1.35143e-017
-2.18157e-029 -2.02042e-031 6.6258e-032
-1.34902e-017 -2.03909e-029 -6.94662e-029
5.21779e-017 -1.59777e-018 -5.71804e-020
0.3091 -0.000109798 0.001286
-0.093891 -0.265918 0.00282429
1.62961e-030 3.30625e-030 -5.42043e-032
-0.152832 -0.264481 -0.00451596
3.62605e-030 8.15359e-030 4.82563e-032
-0.0602224 -0.138158 0.00369371
-0.127411 -0.273932 -0.000665093
-0.0606399 -0.146238 0.0022914
-0.0840906 -0.152576 0.0016944
9.94881e-018 1.96307e-017 -4.7138e-019
-0.073506 -0.139848 -0.000105991
-0.288152 -0.325415 -0.0316123
-0.269025 -0.486751 -0.0342689
-0.118778 -0.18444 -0.0159708
-0.221623 -0.281935 -0.0387917
-0.287089 -0.416776 -0.0337206
-0.198093 -0.273216 -0.0256925
-0.224957 -0.368544 -0.0417875
-0.133763 -0.207046 -0.0226609
-0.212847 -0.364263 -0.0305621
0.47071 0.00160959 8.44796e-005
-9.81063e-029 -2.68992e-031 3.54318e-031
-4.02232e-029 -1.8931e-031 5.40472e-032
0.483862 0.00210302 -0.000744224
0.30707 0.00245466 -0.000899411
0.290186 0.00241418 0.000644503
0.490827 0.00258532 -0.00106869
4.28649e-029 -8.47111e-030 -1.0643e-028
0.40169 -0.0014479 -0.00159001
0.353258 -0.000374597 -0.00033726
-1.76184e-029 2.5789e-032 1.64637e-032
-4.66917e-029 1.35648e-032 -6.94081e-033
-8.71728e-029 4.53703e-032 5.05736e-032
1.33961e-029 4.80485e-029 8.46709e-029
0.294693 -0.000462341 -0.000207454
6.40047e-017 3.17662e-019 -3.39151e-020
0.323011 0.000662941 0.000445086
-3.03021e-017 -1.00837e-019 2.95393e-020
0.294788 -7.78228e-005 -0.000408937
-2.63955e-029 4.78422e-032 -3.13639e-032
-5.11907e-029 5.5685e-032 -1.10107e-031
0.512706 -0.00058141 0.000266844
-8.84483e-029 1.19618e-031 -2.1428e-031
8.38607e-017 -2.09337e-019 4.16131e-019
0.386997 -0.000886133 0.000775505
-6.6152e-017 3.72721e-019 -1.68482e-019
0.397737 -0.000723541 0.00197984
3.14185e-017 5.6938e-020 2.07915e-019
0.377338 -0.0022667 0.000651688
0.469797 0.00114947 -0.00062186
-9.78993e-029 4.1277e-032 1.00231e-031
0.539442 8.6547e-005 -7.11876e-005
0.344369 0.000249994 -0.000345569
0.472766 0.00199017 0.000424292
0.376446 -0.00155253 0.00111246
0.546083 0.00196952 -0.000950224
0.383087 0.000803882 -0.000343888
1.3025e-029 1.24759e-031 -1.02554e-031
-0.347497 -0.00529455 0.00475564
8.41152e-017 9.13185e-019 -3.2766e-018
-0.462698 -0.00486221 0.00487749
-0.755037 -0.0106602 0.00460528
1.26089e-030 -6.08414e-029 4.06284e-030
1.47196e-031 -1.12338e-028 7.3291e-030
-0.00981505 0.693222 -0.0446162
0.000118132 0.70289 -0.0453855
-0.0122043 0.48638 -0.0330476
1.39896e-018 -9.55363e-017 6.47265e-018
-0.00809514 0.581797 -0.0380635
0.000624155 0.516625 -0.00406941
0.0119546 0.278092 0.0018939
0.00409554 0.522767 -0.0102003
0.000102652 0.354135 -0.00106533
0.00908006 0.424402 -0.000333149
0.00327806 0.521668 -0.00733064
0.000301467 0.439371 -0.00149912
0.00830634 0.416135 -0.00367535
0.00511324 0.342673 0.000286314
0.00183057 0.4539 -0.00446327
0.00721535 0.267653 0.00584807
0.00181427 0.376305 0.00466119
0.000909766 0.285525 0.00269104
8.54904e-029 1.58857e-030 6.86778e-031
1.43725e-028 2.89109e-030 1.00647e-030
2.56702e-029 2.98834e-031 1.25114e-031
-0.631255 -0.00809417 -0.00371117
-0.595192 -0.00887352 -0.00594555
-0.594884 -0.0100205 -0.00361165
-1.35966e-016 3.44114e-019 -1.91392e-018
-1.60615e-016 -2.95757e-018 -1.37473e-018
-1.52607e-016 -3.13062e-018 -1.87086e-018
7.44301e-031 2.82056e-030 -6.19278e-032
-0.164678 -0.492591 -0.00421151
4.16153e-030 2.07662e-029 1.3711e-031
1.56578e-030 7.68542e-030 -1.38494e-031
-0.095262 -0.358886 0.00658836
4.51465e-030 -4.2524e-030 -2.72866e-029
-4.3047e-017 -2.11184e-016 7.44152e-018
-0.0852626 -0.361605 0.00097635