# vtk DataFile Version 2.0 
output.vtk, Created by Freefem++, via gregorio
ASCII
DATASET UNSTRUCTURED_GRID
POINTS 7451 double
-3.79965 2.23652 0.040848
-4.13429 2.05574 0.276253
-4.09122 2.24524 0.070091
-4.01836 2.27766 0.330071
-3.96697 2.14613 0.158551
-3.94543 2.24088 0.0554695
-3.90901 2.25709 0.185459
-4.11275 2.15049 0.173172
-4.07633 2.1667 0.303162
-4.05479 2.26145 0.200081
-4.81817 0.732763 -0.840268
-4.76136 0.37264 -0.736193
-5.12328 0.495929 -0.550642
-4.73872 0.559667 -0.434419
-4.78977 0.552702 -0.788231
-4.97072 0.614346 -0.695455
-4.77845 0.646215 -0.637344
-4.94232 0.434285 -0.643417
-4.75004 0.466153 -0.585306
-4.931 0.527798 -0.49253
-7.58244 -0.891248 -0.453516
-8 -0.559587 0.124298
-7.26059 -0.264226 0.250847
-7.58828 -0.999993 0.00381
-7.79122 -0.725418 -0.164609
-7.42152 -0.577737 -0.101334
-7.58536 -0.94562 -0.224853
-7.6303 -0.411906 0.187573
-7.79414 -0.77979 0.064054
-7.42444 -0.632109 0.127328
-5.46564 0.048234 0.998836
-5.51396 -0.351144 0.936321
-5.02851 -0.125769 0.598961
-5.56665 -0.148801 0.504295
-5.4898 -0.151455 0.967578
-5.24708 -0.0387675 0.798898
-5.51614 -0.0502835 0.751565
-5.27124 -0.238457 0.767641
-5.5403 -0.249972 0.720308
-5.29758 -0.137285 0.551628
-4.20269 -2.80441 0.102764
-3.63085 -2.57461 -0.287529
-4.13183 -2.29387 0.255347
-4.14432 -2.47254 -0.273935
-3.91677 -2.68951 -0.0923825
-4.16726 -2.54914 0.179055
-4.1735 -2.63848 -0.0855855
-3.88134 -2.43424 -0.016091
-3.88759 -2.52358 -0.280732
-4.13807 -2.38321 -0.009294
-6.25062 -0.085247 0.575431
-6.51584 -0.423084 -0.15939
-6.46019 0.447486 0.293263
-6.75561 -0.174737 0.413139
-6.38323 -0.254165 0.20802
-6.35541 0.181119 0.434347
-6.88822 -0.343655 0.0457285
-6.86039 0.09163 0.272055
-6.48801 0.012201 0.0669365
-4.88162 0.371746 0.655425
-4.51246 -0.112716 0.623981
-4.65723 0.09269 0.995695
-4.69704 0.129515 0.639703
-4.95507 0.122989 0.627193
-4.76942 0.232218 0.82556
-4.77049 -0.119243 0.611471
-4.58484 -0.010013 0.809838
-4.84287 -0.0165395 0.797328
-3.75099 1.20677 0.090288
-3.64118 0.745776 0.266863
-4.09568 0.790235 0.315934
-3.78936 1.07086 0.69071
-3.69609 0.976272 0.178575
-3.92333 0.998502 0.203111
-3.77017 1.13882 0.390499
-3.86843 0.768006 0.291399
-3.71527 0.908319 0.478787
-3.94252 0.930549 0.503322
-2.18572 0.40145 0.915881
-1.75478 0.245881 0.526965
-1.94554 -0.013967 0.999902
-1.76886 0.356252 0.93439
-1.97025 0.323665 0.721423
-2.06563 0.193741 0.957891
-1.97729 0.378851 0.925135
-1.85016 0.115957 0.763433
-1.76182 0.301067 0.730678
-1.8572 0.171143 0.967146
-5.06116 0.824959 0.710182
-4.88551 0.773989 0.80113
-4.92155 0.772883 0.437198
-5.01596 0.602336 0.857802
-4.97333 0.799474 0.755656
-4.99135 0.798921 0.57369
-5.03856 0.713647 0.783992
-4.90353 0.773436 0.619164
-4.95074 0.688163 0.829466
-4.96876 0.687609 0.6475
-2.34262 2.51752 0.051733
-2.4672 2.85727 -0.311185
-2.29554 2.81673 0.086134
-2.65762 2.74748 0.16058
-2.40491 2.6874 -0.129726
-2.31908 2.66712 0.0689335
-2.50012 2.6325 0.106157
-2.38137 2.837 -0.112526
-2.56241 2.80238 -0.0753025
-2.47658 2.7821 0.123357
-3.50303 -3.76846 -0.636668
-3.49422 -3.29308 -1.15018
-3.31427 -3.71149 -1.25136
-2.90724 -3.34218 -0.858121
-3.49863 -3.53077 -0.893424
-3.40865 -3.73997 -0.944014
-3.20514 -3.55532 -0.747394
-3.40425 -3.50228 -1.20077
-3.20073 -3.31763 -1.00415
-3.11076 -3.52683 -1.05474
-4.0054 2.49156 -0.125899
-3.5956 2.50054 -0.194198
-3.83412 2.54803 0.0159
-3.8005 2.49605 -0.160049
-3.90253 2.36404 -0.0425255
-3.91976 2.5198 -0.0549995
-3.69763 2.36853 -0.076675
-3.71486 2.52428 -0.089149
-3.81689 2.39228 0.028374
-3.73452 -3.68531 -1.05781
-3.52439 -3.6984 -1.15459
-3.61437 -3.4892 -1.104
-3.61877 -3.72688 -0.84724
-6.37864 0.944563 0.328331
-6.25891 0.813305 0.581838
-6.65332 0.772267 0.635298
-6.31878 0.878934 0.455085
-6.41941 0.696025 0.310797
-6.51598 0.858415 0.481815
-6.35955 0.630395 0.43755
-6.45612 0.792786 0.608568
-6.55675 0.609877 0.46428
1.62066 -0.841518 -0.540229
1.89324 0.238579 -0.195511
2.01627 -0.690819 -0.723027
2.25185 -0.211859 0.261412
1.75695 -0.30147 -0.36787
1.81846 -0.766169 -0.631628
1.93625 -0.526689 -0.139408
1.95475 -0.22612 -0.459269
2.07254 0.01336 0.0329505
2.13406 -0.451339 -0.230807
-2.56949 2.06853 0.305158
-2.91403 1.60744 0.564909
-3.02709 2.08175 0.021586
-2.87501 2.07662 0.630995
-2.74176 1.83799 0.435033
-2.79829 2.07514 0.163372
-2.72225 2.07258 0.468077
-2.97056 1.8446 0.293247
-2.89452 1.84203 0.597952
-2.95105 2.07919 0.32629
-5.39985 0.358755 0.933432
-5.34934 0.453264 0.543553
-5.56264 0.558471 0.829524
-5.70805 0.297641 0.954678
-5.37459 0.40601 0.738492
-5.48124 0.458613 0.881478
-5.55395 0.328198 0.944055
-5.45599 0.505868 0.686538
-5.52869 0.375452 0.749116
-5.63535 0.428056 0.892101
-4.17913 0.323834 -0.696515
-4.36183 0.516245 -0.417662
-4.60784 0.019305 -0.528365
-4.46586 0.364911 -0.72315
-4.27048 0.42004 -0.557088
-4.39349 0.17157 -0.61244
-4.3225 0.344372 -0.709832
-4.48483 0.267775 -0.473013
-4.41384 0.440578 -0.570406
-4.53685 0.192108 -0.625757
-5.9377 0.438799 -0.558905
-5.87927 0.529091 -0.848565
-6.25926 0.555743 -0.831354
-6.07929 0.245277 -0.969453
-5.90849 0.483945 -0.703735
-6.09848 0.497271 -0.695129
-6.00849 0.342038 -0.764179
-6.06927 0.542417 -0.839959
-5.97928 0.387184 -0.909009
-6.16928 0.40051 -0.900404
-3.64743 2.72944 0.180305
-3.74077 2.63873 0.0981025
-3.72354 2.48298 0.110576
-3.62151 2.61499 -0.0069465
-3.98168 0.388062 0.141859
-3.76543 0.320245 0.603448
-3.81143 0.566919 0.204361
-3.70331 0.533011 0.435156
-4.03868 0.589149 0.228897
-3.87356 0.354154 0.372653
-3.93055 0.55524 0.459691
-6.17342 0.027823 -0.593282
-6.59748 0.255766 -0.966739
-6.35964 0.547779 -0.240473
-6.21634 0.291783 -0.712318
-6.42837 0.405755 -0.899047
-6.30945 0.551761 -0.535914
-6.38545 0.141794 -0.78001
-6.26653 0.287801 -0.416878
-6.47856 0.401772 -0.603606
-5.98474 0.742767 -0.66955
-5.96122 0.590783 -0.614227
-6.122 0.649255 -0.750452
-5.93201 0.635929 -0.759057
-5.86659 0.345457 -0.129882
-5.96054 -0.099592 -0.035866
-6.02 0.18664 -0.361582
-6.11312 0.446618 -0.185177
-5.91357 0.122933 -0.082874
-6.06698 -0.0358845 -0.314574
-6.16009 0.224094 -0.13817
-1.10421 0.363269 -0.931684
-0.773878 0.737644 -0.67519
-0.520452 0.269543 -0.962988
-0.384634 0.008888 -0.353445
-0.939043 0.550457 -0.803437
-0.812329 0.316406 -0.947336
-0.74442 0.186079 -0.642564
-0.647165 0.503594 -0.819089
-0.579256 0.373266 -0.514317
-0.452543 0.139215 -0.658216
-2.85287 -3.00249 -1.21636
-3.23054 -2.92385 -1.196
-3.06719 -3.3306 -1.25351
-2.88006 -3.17233 -1.03724
-3.06889 -3.13301 -1.02706
-2.98722 -3.33639 -1.05581
-3.0417 -2.96317 -1.20618
-2.96003 -3.16654 -1.23493
-3.14886 -3.12722 -1.22475
-3.38618 -2.05134 -0.098565
-2.37808 -2.56123 -0.134541
-2.49252 -2.47812 0.422472
-2.41131 -1.89586 0.044632
-2.88213 -2.30628 -0.116553
-2.93935 -2.26473 0.161954
-2.89875 -1.9736 -0.0269665
-2.4353 -2.51967 0.143966
-2.39469 -2.22855 -0.0449545
-2.45192 -2.18699 0.233552
-1.85713 -0.413967 0.42138
-1.65927 -0.390905 0.920431
-1.2503 -0.077569 0.384148
-1.80595 -0.084043 0.474172
-1.70702 -0.072512 0.723698
-1.50254 0.084156 0.455557
-1.7582 -0.402436 0.670905
-1.55371 -0.245768 0.402764
-1.45478 -0.234237 0.652289
-2.09043 2.55218 0.167395
-2.0659 2.66009 -0.048555
-2.19298 2.68445 0.126765
-2.18072 2.73841 0.0187895
-2.07816 2.60614 0.05942
-2.21652 2.53485 0.109564
-2.20426 2.58881 0.001589
-4.01665 2.44382 0.136481
-3.97233 2.67361 0.084512
-3.92539 2.49592 0.0761905
-3.99449 2.55872 0.110496
-4.01103 2.46769 0.005291
-3.90323 2.61082 0.050206
-3.98887 2.58259 -0.0206935
-3.92754 1.80484 -0.220103
-4.28096 1.83407 -0.225431
-4.13592 1.88983 -0.461486
-4.146 2.03152 -0.278406
-4.10425 1.81945 -0.222767
-4.03173 1.84734 -0.340795
-4.03677 1.91818 -0.249254
-4.20844 1.86195 -0.343458
-4.21348 1.9328 -0.251918
-4.14096 1.96068 -0.369946
-4.04038 -5 0.949212
-3.62468 -5 1.26221
-3.84559 -4.54287 1.07336
-3.71487 -5 0.728948
-3.83253 -5 1.10571
-3.94299 -4.77144 1.01129
-3.87763 -5 0.83908
-3.73513 -4.77144 1.16779
-3.66977 -5 0.99558
-3.78023 -4.77144 0.901156
-1.37334 0.812082 -0.583544
-0.975724 0.961208 -0.275823
-1.19336 -0.166381 -0.273753
-1.17453 0.886645 -0.429683
-1.07361 0.774863 -0.629367
-1.28335 0.32285 -0.428648
-0.874801 0.849426 -0.475506
-1.08454 0.397413 -0.274788
-0.983618 0.285631 -0.474471
-3.83515 -1.82017 -0.741539
-3.34976 -1.58414 -0.592596
-3.50394 -2.07825 -1.02313
-3.59245 -1.70215 -0.667067
-3.66955 -1.94921 -0.882335
-3.61067 -1.93575 -0.420052
-3.42685 -1.83119 -0.807863
-3.36797 -1.81774 -0.345581
-3.44506 -2.06479 -0.560848
-2.72946 0.769161 0.094533
-2.75119 0.681139 -0.326037
-2.98528 1.02631 -0.281501
-3.08113 0.734324 -0.34324
-2.74032 0.72515 -0.115752
-2.85737 0.897737 -0.093484
-2.90529 0.751742 -0.124353
-2.86823 0.853726 -0.303769
-2.91616 0.707731 -0.334639
-3.03321 0.880319 -0.31237
-2.94023 -2.47675 -0.674772
-3.14499 -2.03044 -0.633684
-3.22209 -2.2775 -0.848951
-3.16321 -2.26404 -0.386669
-3.03914 -4.25341 0.579285
-2.64287 -3.80807 0.20828
-2.47531 -4.18593 0.714333
-2.97264 -3.41482 0.618231
-2.84101 -4.03074 0.393783
-2.75723 -4.21967 0.646809
-3.00589 -3.83412 0.598758
-2.55909 -3.997 0.461307
-2.80776 -3.61144 0.413255
-2.72397 -3.80037 0.666282
-2.39684 -0.595487 -0.803365
-1.98884 -0.54749 -0.836812
-2.24172 -0.466498 -0.098067
-2.21295 -0.01831 -0.514797
-2.19284 -0.571489 -0.820088
-2.31928 -0.530992 -0.450716
-2.3049 -0.306899 -0.659081
-2.11528 -0.506994 -0.46744
-2.1009 -0.2829 -0.675804
-2.22734 -0.242404 -0.306432
-3.36239 -4.55484 -1.31864
-3.11171 -4.25429 -0.873787
-2.86199 -4.55394 -1.36046
-2.79118 -5 -0.96439
-3.23705 -4.40456 -1.09621
-3.11219 -4.55439 -1.33955
-3.07678 -4.77742 -1.14151
-2.98685 -4.40411 -1.11712
-2.95144 -4.62714 -0.919088
-2.82658 -4.77697 -1.16243
-3.88203 2.65205 -0.416886
-3.48121 2.84727 -0.340672
-3.82273 3 -0.474998
-3.72541 2.76868 -0.627028
-3.68162 2.74966 -0.378779
-3.85238 2.82603 -0.445942
-3.80372 2.71037 -0.521957
-3.65197 2.92364 -0.407835
-3.60331 2.80798 -0.48385
-3.77407 2.88434 -0.551013
[...]
POINT_DATA 7451
 
FIELD FieldData 2
velocity 3 7451 double
-0.122231 -0.347711 0.00945307
1.52016e-030 3.4326e-030 -1.87943e-031
4.41461e-031 1.20481e-030 -5.55278e-032
1.27097e-030 3.41473e-030 -1.71738e-031
-0.0832447 -0.203301 0.011303
-0.0725521 -0.199768 0.0091606
-0.080133 -0.231832 0.0121417
-1.87212e-018 -4.53219e-018 3.11166e-019
5.65436e-018 1.40606e-017 -1.0899e-018
1.86072e-029 -7.98462e-030 -4.33899e-030
8.80432e-030 2.93796e-030 -1.98099e-031
-0.410582 -0.109302 0.00103412
-0.626117 -0.142584 0.00737385
-0.705694 -0.230715 0.00602242
-0.226921 -0.0769628 0.00700576
-0.306145 -0.0931902 0.00981538
-0.405121 -0.14694 0.00930418
-0.534577 -0.134336 0.00693635
-0.59209 -0.174621 0.00526134
-0.675467 -0.192637 0.00832115
9.44958e-029 -2.90569e-031 2.72708e-032
-0.846825 0.00729981 -0.000622015
-1.10398 3.49905e-005 -0.000592047
5.45723e-029 -2.1932e-031 5.23232e-032
-0.551685 0.00341535 6.75859e-005
-0.835136 -5.25872e-006 -0.00253032
-1.34299e-016 2.48196e-019 -3.16035e-019
-1.00688 0.00127341 -7.19896e-005
-0.479111 0.0063354 -0.000804603
-0.741642 0.00191666 -0.000177259
3.21587e-029 3.32706e-030 5.82489e-032
2.11745e-029 1.35427e-030 2.76996e-031
-0.699931 -0.104615 -0.0137703
-0.88432 -0.0620515 -0.00508616
-1.05729e-016 -6.69175e-018 -1.4723e-018
-0.422669 -0.0482901 -0.00394085
-0.526145 -0.0335905 -0.00351051
-0.403458 -0.0313788 -0.00762679
-0.505312 -0.0232811 -0.00493987
-0.797755 -0.0856169 -0.00850376
-4.20933e-030 -6.44293e-029 1.6893e-030
0.0265724 0.432844 0.00373036
-4.59059e-030 -7.62336e-029 2.19023e-030
-8.07813e-031 -9.61478e-030 -6.54925e-033
0.0239895 0.294051 -0.00301859
-6.42027e-017 -5.89707e-016 1.66167e-017
-4.05116e-018 -4.0997e-017 5.10408e-019
0.0271893 0.347967 -0.00492343
0.0223293 0.256655 0.000721981
-5.82647e-017 -6.24259e-016 9.75566e-018
-0.830468 -0.0162995 -0.00240643
-1.00274 -0.0096242 -0.00219745
-0.902954 -0.0129441 -0.000939818
-1.01004 -0.00263146 -0.000993082
-1.13136 -0.0172721 -0.00316278
-0.984512 -0.0171633 -0.00230204
-1.11527 -0.0046773 -0.00382672
-1.16926 -0.0025199 -0.000488674
-1.26907 -0.0169829 -0.00155548
-0.56335 -0.186322 0.00461971
-0.570032 -0.102042 -0.0202834
1.83044e-029 5.02243e-030 1.93889e-031
-0.623367 -0.165189 -0.00819235
-0.688702 -0.154192 -0.00386305
-0.309475 -0.108978 0.00318786
-0.63473 -0.111866 -0.0189248
-0.342038 -0.0933381 -0.0102752
-0.389934 -0.0842241 -0.00827877
-0.429153 -0.452407 -0.021613
-0.465346 -0.263154 -0.0476138
-0.604643 -0.334509 -0.0136699
-0.238772 -0.300111 -1.84969e-005
-0.463976 -0.383231 -0.0375107
-0.518507 -0.395896 -0.0189724
-0.392781 -0.415631 -0.0147305
-0.552608 -0.307654 -0.0305092
-0.385728 -0.326612 -0.0225606
-0.422007 -0.333623 -0.00646376
-1.67501e-029 -6.15494e-030 1.04423e-030
0.348024 0.0510698 -0.00580613
-2.01473e-029 -5.89156e-030 -3.75351e-031
-4.25972e-030 -2.08772e-031 1.65992e-032
0.187626 0.0285318 -0.00543777
6.01546e-017 4.72825e-018 2.37174e-018
3.21224e-018 2.0584e-019 -1.88602e-020
0.212801 0.016396 -0.00109746
0.198614 0.0106025 0.00128864
-6.91032e-017 -4.26032e-019 -9.0067e-019
2.49712e-017 1.16183e-017 -7.06004e-019
2.69647e-030 1.23046e-030 -5.2522e-032
-0.508115 -0.210035 0.00888141
2.88059e-030 1.17857e-030 -5.45766e-032
1.24899e-017 6.26547e-018 -3.94364e-019
-0.286358 -0.126639 0.00672503
9.82678e-017 4.41842e-017 -3.61655e-018
-0.286468 -0.138286 0.00778067
1.52239e-016 7.802e-017 -3.46097e-018
-0.315959 -0.134966 0.00585942
-0.033162 -0.23665 -0.0133516
-0.0203765 -0.251656 -0.00871445
-0.0125781 -0.236002 -0.00681982
-0.0521554 -0.498719 -0.0148298
-0.0289287 -0.267065 -0.0110273
-0.0231252 -0.23743 -0.0102541
-0.0454834 -0.378554 -0.0159787
-0.0187331 -0.269577 -0.00930812
-0.0380713 -0.395562 -0.0121672
-0.0320354 -0.382966 -0.0114453
0.0114388 0.272125 0.00840484
-6.42448e-031 -2.0341e-029 -1.02391e-030
-3.21764e-031 -1.5526e-029 -8.77653e-031
-0.00174717 0.226605 0.0128859
0.00643368 0.144554 0.00803013
0.00560086 0.141777 0.00804478
0.00482672 0.277525 0.0118712
2.16337e-029 2.0598e-030 6.28235e-029
0.00231489 0.134859 0.00911346
0.00116073 0.116116 0.00824074
9.41243e-031 3.47252e-030 -9.7226e-032
-0.0905756 -0.371651 0.00390523
-0.0484766 -0.229796 0.00496086
-0.0580625 -0.233541 0.00625735
-0.0602963 -0.194321 0.00613487
-0.0276299 -0.117375 0.00338603
-0.110292 -0.372347 0.00580023
-0.0760533 -0.330121 0.00566784
-0.0823372 -0.287397 0.0075249
-2.58738e-031 -4.55465e-030 -2.21325e-031
-3.65547e-018 -6.86249e-017 -5.03706e-018
3.55769e-018 6.1372e-017 4.41264e-018
0.00772985 0.137174 0.00664563
1.00339e-029 1.71419e-031 2.4547e-033
1.32935e-029 2.22016e-031 1.5901e-032
1.7342e-029 1.84832e-031 4.28572e-032
6.95057e-017 1.53829e-018 8.63933e-020
-0.520234 -0.0128014 -0.000522158
-4.84044e-030 -4.40254e-029 -2.22382e-029
-0.510735 -0.00649592 -0.000668041
-1.81602e-017 -1.84493e-019 1.7269e-019
-0.519733 -0.00585824 -0.00103845
-1.46363e-028 3.6994e-031 -7.00746e-032
0.484737 0.000562945 0.000716606
-5.41285e-029 3.80619e-032 -1.27239e-031
0.47226 -0.00218357 0.00130092
0.415704 -0.00127088 0.000283926
-6.66971e-017 3.674e-020 -3.03239e-019
0.375206 -0.000227903 0.00135302
0.393323 0.000694057 0.000859057
0.534812 -0.00104955 0.00162743
0.396702 -0.00115901 0.00173336
-0.0802622 -0.329201 -0.0281871
-0.118401 -0.341112 -0.0333404
-0.170486 -0.535008 -0.0255702
-0.0906763 -0.408839 -0.0208584
-0.106849 -0.362344 -0.0337278
-0.134454 -0.482412 -0.0329423
-0.0936133 -0.39965 -0.0288881
-0.178027 -0.517443 -0.0368215
-0.108033 -0.382243 -0.0275754
-0.151756 -0.550498 -0.0304775
3.03535e-030 4.01519e-031 -6.68132e-032
-0.668276 -0.123523 0.00999001
6.56386e-030 5.26551e-031 -1.15531e-031
2.91305e-029 1.94558e-030 -1.49608e-031
-0.376671 -0.0499322 0.0102988
-9.79214e-017 -7.78014e-018 3.42175e-018
1.3624e-016 6.22146e-018 -3.96809e-018
-0.364278 -0.0441515 0.00891179
-0.380177 -0.0311323 0.00700795
-2.22155e-017 -7.11942e-019 7.79033e-019
-0.403111 -0.101985 -0.0145188
-0.685618 -0.233257 -0.0114153
-0.727751 -0.113099 -0.00674486
-0.408472 -0.118116 -0.00511939
-0.566112 -0.170167 -0.0140583
-0.581946 -0.118546 -0.0114491
-0.410373 -0.114325 -0.00959123
-0.742154 -0.174971 -0.0115275
-0.577817 -0.181758 -0.00662772
-0.592836 -0.127633 -0.0063455
-0.626755 -0.0136253 0.00189529
3.26554e-030 3.86804e-032 -6.61076e-033
2.90793e-029 3.56697e-031 -1.48836e-031
1.33905e-029 1.81524e-031 -2.69944e-032
-0.337879 -0.00339187 0.0012822
-0.335409 -0.00631782 0.00282433
-0.365939 -0.0042727 0.00201856
-2.39749e-016 -1.92982e-018 2.10424e-018
-1.73391e-016 -2.52178e-019 1.04499e-018
-1.07572e-029 -2.08909e-029 4.68963e-029
-0.0586538 -0.397273 0.00542539
-0.0556658 -0.320895 0.005617
-0.0864908 -0.369548 0.00667976
-0.0792775 -0.413723 0.00420269
-0.740029 -0.151027 -0.0427426
-0.407846 -0.0412588 -0.019606
-0.602863 -0.202514 -0.0478506
-0.462691 -0.14491 -0.0379683
-0.693411 -0.261344 -0.0301468
-0.613379 -0.0960778 -0.0355735
-0.545847 -0.208966 -0.0212358
-0.810968 -0.0103965 0.000548841
-3.66761e-017 4.2793e-020 8.26084e-020
-0.811423 -0.00916115 0.00346749
-0.507169 -0.00738076 0.00300141
-2.43605e-029 -2.98442e-029 5.88631e-029
-0.507276 -0.00584524 0.00454478
-0.460808 -0.00799129 0.00171755
-0.941918 -0.0127166 0.00303561
-0.590751 -0.00289339 0.00302265
5.27735e-030 9.28291e-032 -7.83517e-033
-0.342471 -0.0064738 0.00201021
-7.73278e-017 -1.26842e-018 1.72613e-018
-1.02128e-016 -8.49651e-019 6.52543e-019
-1.1129 -0.0514073 0.00279552
-1.24674 -0.0417901 -0.00319047
-1.05963 -0.0267189 0.000666497
-0.978459 -0.0225099 0.00342956
-1.24482 -0.0507149 0.000184034
-1.13796 -0.0263849 -0.0014414
-1.18624 -0.0274886 0.00143894
1.98369e-017 -1.55687e-019 -3.14314e-019
-4.77564e-029 4.59021e-031 4.67288e-031
-1.77091e-029 5.33975e-032 9.28977e-032
0.475892 -0.00457251 -0.000880214
-3.0517e-017 2.84566e-019 4.44699e-019
1.31576e-029 -3.16305e-029 9.56136e-029
0.290805 -0.00295627 -0.00292821
-3.14494e-017 1.04618e-019 3.21631e-019
0.325401 -0.00364517 -0.00233361
0.293889 9.03496e-005 -0.00200647
7.60147e-032 -7.04565e-030 -5.4877e-031
-3.20203e-031 -2.1765e-029 -1.30496e-030
-6.30151e-033 -2.60013e-030 -1.95027e-031
-0.00127967 0.118332 0.00921484
0.00201848 0.125278 0.00995771
5.13875e-005 0.114249 0.00805335
-7.1605e-019 -5.7868e-017 -7.00173e-018
-7.87583e-020 2.6485e-017 2.40369e-018
-1.30716e-018 -5.60548e-017 2.56864e-018
0.0218384 0.716443 -0.00550873
-0.0256618 0.519448 -0.000297669
-0.0279447 0.716081 -0.0339026
-0.0282266 0.667247 -0.0165251
-0.00735563 0.760426 -0.00233223
-0.00385921 0.912622 -0.0226959
-0.00660003 0.864268 -0.0132869
-0.0281981 0.673557 -0.0138037
-0.0271079 0.594547 -0.00584672
-0.0295336 0.721895 -0.0265987
0.366381 0.160702 0.0235225
-2.59028e-029 -1.62895e-030 -1.64017e-031
0.455615 0.014963 -0.00245228
0.408029 0.104409 -3.09707e-005
0.246112 0.00701907 -0.000838462
0.421949 0.0326931 -0.00171766
0.195544 0.00496134 0.00863628
0.41215 0.0520591 -0.00157778
0.268172 0.000767313 -0.00320376
-1.96812e-018 -2.71021e-017 -1.18074e-018
1.07912e-031 1.22574e-030 5.86678e-032
-0.00757634 -0.120029 -0.00436375
-0.00810002 -0.115124 -0.00389629
-4.1688e-018 -5.20259e-017 -2.15389e-018
-0.0165963 -0.12961 -0.00730168
-0.0152822 -0.12187 -0.00772782
-7.42254e-018 -3.00311e-017 1.11882e-018
2.76998e-031 1.75991e-030 -3.71692e-032
-0.0311737 -0.133286 0.00421194
1.24845e-017 6.63374e-017 -1.61099e-018
1.99958e-029 -6.58059e-030 -1.18687e-031
-0.0211773 -0.13099 0.00189613
2.18216e-017 1.18542e-016 -2.48843e-018
-0.18367 -0.295165 0.00789691
1.44065e-030 2.01507e-030 -1.10301e-031
6.79086e-031 1.09075e-030 -5.44944e-032
5.09711e-031 8.8707e-031 -4.57994e-032
-0.112782 -0.16993 0.00940682
-0.103061 -0.164886 0.00827774
-0.0999843 -0.169706 0.0085733
-5.14053e-017 -7.76146e-017 5.69408e-018
-3.22225e-016 -5.11734e-016 3.73879e-017
-1.97548e-016 -3.32195e-016 2.29196e-017
-1.27893e-031 -3.77682e-030 1.54185e-031
-1.95037e-031 -1.08886e-029 4.95022e-031
-6.11389e-031 -1.8823e-029 9.96708e-031
0.00997957 0.394834 -0.0126667
-3.48709e-018 -1.52947e-016 7.0701e-018
-5.71207e-019 -1.7487e-017 8.93591e-019
0.00643491 0.232927 -0.00838082
8.72186e-019 3.29457e-017 -1.83839e-018
0.00586306 0.285034 -0.0127699
0.00885 0.279666 -0.0140581
-5.51764e-029 -5.20592e-032 1.24633e-030
-5.79552e-029 3.71663e-031 6.28339e-031
0.479452 -0.0115634 4.14303e-005
2.52508e-017 3.27577e-020 -6.42717e-019
-2.74685e-017 1.58812e-019 6.25461e-019
0.383324 -0.00320134 -0.00831969
-6.24454e-017 5.42449e-019 6.18191e-019
0.419705 -0.00184958 -0.00599755
0.369805 -0.00554864 -0.00334982
6.01645e-020 8.94613e-019 4.21311e-020
0.00726131 0.401541 0.0161966
-2.15058e-030 -5.95489e-029 -2.06377e-030
0.00833773 0.218893 0.0103537
-4.35948e-018 -7.14317e-017 -9.14059e-018
0.0198177 0.392607 0.00867727
0.00762747 0.186729 0.0121817
0.0149715 0.587236 0.00855067
0.0159539 0.381717 0.0136997
0.0199871 -0.0547183 -0.0493544
0.0190907 -0.0104631 -0.0337418
-0.128641 -0.208743 -0.0353451
-0.135188 -0.10038 -0.0469282
0.0178034 -0.0427341 -0.0463354
-0.0619713 -0.158328 -0.0458979
-0.0627094 -0.100804 -0.0552821
-0.045476 -0.0929122 -0.0319774
-0.0513302 -0.0532457 -0.0408035
-0.126102 -0.158098 -0.0416867
-0.00171701 0.365242 0.016911
0.00694884 0.411857 0.0170318
0.00727604 0.224987 0.0134532
0.00917815 0.580236 0.0110519
0.00070274 0.661233 -0.0265022
-0.0161538 0.680786 -0.0138203
-0.0172353 0.522543 -0.0290958
-0.00072136 0.730965 -0.039782
-0.00831575 0.72142 -0.0202551
-0.00974149 0.644678 -0.0301316
0.000358698 0.696779 -0.0337158
-0.0188929 0.646185 -0.0221116
-0.0104185 0.752524 -0.0241734
-0.012851 0.658342 -0.0354447
1.77928e-017 5.36488e-017 3.71833e-018
5.68323e-017 1.41885e-018 1.1859e-019
0.401175 0.443476 -0.0208363
0.301316 0.107103 -0.0259421
1.35265e-029 3.65495e-029 4.13315e-029
0.26537 0.293591 -0.0148892
0.201196 0.111857 -0.0180185
0.299054 0.168082 -0.0169432
0.231152 0.0571221 -0.0124407
0.384303 0.251562 -0.0290064
8.0248e-019 2.07083e-017 1.62813e-018
0.0020135 0.207976 0.00827984
1.88976e-031 -1.31603e-029 -4.96287e-031
-0.00169115 0.155515 0.00284741
0.0023104 0.0986249 0.00573619
1.31256e-018 3.23639e-017 4.30783e-018
0.000597658 0.0885097 0.00333092
-2.07802e-005 0.0983326 0.00533214
-0.000651671 0.18563 0.00487903
-0.00104592 0.0774342 0.00287039
6.17206e-031 3.33953e-030 -6.97579e-032
-0.0413982 -0.322009 0.00203704
5.75544e-031 1.07158e-029 -1.05347e-031
9.84783e-031 4.87859e-030 -8.72277e-032
-0.0278198 -0.190024 0.00369221
-2.85709e-017 -2.42512e-016 5.51151e-018
2.22416e-029 -4.83692e-030 1.55074e-029
-0.0179484 -0.18377 0.00216231
-0.0257833 -0.176215 0.00177529
-2.28628e-017 -1.97513e-016 2.89756e-018
0.515688 -0.000290939 -0.000171055
-2.0188e-029 2.51411e-032 -4.78758e-033
-2.09895e-029 1.36042e-032 3.97073e-033
-3.57517e-029 4.93689e-032 6.17633e-033
0.346933 0.000138998 -7.93728e-005
0.348541 -0.000136618 -0.000227458
0.346479 -0.000299176 6.2196e-005
-1.94347e-016 -6.5658e-020 9.82783e-020
1.28269e-029 2.59277e-021 -1.72535e-029
2.53551e-017 -1.68381e-020 -4.62439e-021
0.200857 0.749678 -0.0447114
-0.0115313 0.801772 -0.0278642
-0.0173011 0.921415 -0.0850613
0.0358961 0.718822 -0.00473056
0.091552 0.905241 -0.0512529
0.0683764 0.87818 -0.0736377
0.136236 0.846979 -0.0384057
-0.0179459 0.984282 -0.063888
0.0521739 0.821277 -0.0186461
0.0430816 0.98763 -0.0550459
-7.56267e-029 1.08417e-031 2.40411e-032
-4.4536e-029 8.69759e-032 9.11867e-032
-5.52937e-029 4.42323e-031 -4.71708e-032
0.471857 -0.00387403 8.93269e-005
3.90168e-019 1.04238e-019 -6.55151e-022
3.84007e-019 -2.21456e-020 -4.92176e-022
0.372603 4.82165e-005 -0.00129131
9.06701e-019 -2.50009e-022 3.43628e-030
0.332706 0.000498331 -0.00104362
0.378624 -0.00256643 0.000675519
8.18437e-030 4.76593e-030 -2.48447e-031
-0.393554 -0.239297 0.012131
2.78745e-030 1.65492e-030 -1.0545e-031
-0.268106 -0.171971 0.0102146
-0.260248 -0.139252 0.00810609
5.73055e-016 3.86476e-016 -2.92709e-017
-0.451015 -0.227905 0.0104105
-0.237137 -0.155712 0.011607
-0.249914 -0.137487 0.00821586
-0.83905 0.000912106 0.00600549
1.78916e-028 -2.29469e-031 -2.61998e-031
1.33012e-029 -8.62897e-032 -1.66149e-031
-0.83796 0.00516729 0.00296389
-0.555425 0.00274442 0.00279995
-0.500302 -0.000388289 0.00635495
-0.927584 0.0040729 0.00360003
-2.29851e-029 3.26614e-029 6.07743e-029
-0.472402 0.00436511 0.00195199
-0.504843 0.00643869 0.00355506
-3.60234e-029 3.33525e-031 2.08394e-031
-1.31999e-029 2.01606e-031 1.58285e-031
-2.03961e-029 -8.69019e-031 3.53144e-032
-4.55241e-017 2.0153e-018 3.53766e-019
-1.17801e-018 1.84506e-020 3.70969e-020
0.297124 -0.00232008 -0.001567
-1.61635e-017 4.2197e-019 5.81407e-019
0.274372 -0.00541316 -0.00232993
0.283722 0.0042721 -0.0107767
-7.89941e-029 1.30041e-030 -2.87652e-031
0.380744 -0.00636439 0.000636472
0.318563 -0.00977448 0.00211434
0.345155 -0.00696432 0.000808027
0.529593 -0.0082205 3.97086e-006
0.547279 -0.00555193 -0.000127739
0.481987 -0.0104606 -0.000526141
-1.72748e-029 -1.72576e-031 2.33825e-032
-3.24334e-029 4.23522e-031 -2.02904e-032
5.36369e-017 -2.62415e-018 -3.04273e-019
4.68923e-017 -2.70273e-018 -4.38119e-019
0.278493 -0.00300858 -0.000740206
4.20143e-018 -2.1122e-019 -4.93878e-020
0.286236 -0.00383632 -0.00280828
-6.04833e-029 2.52995e-031 2.47484e-031
0.471492 0.0015884 -0.000696018
-4.02356e-029 1.42268e-031 1.04834e-031
0.288831 -0.00153715 -0.00082341
-9.73298e-017 1.59808e-019 7.0183e-019
0.369664 -0.00305319 -0.00188994
0.300463 -0.000101932 -0.00078407
0.494268 -0.00158222 -0.00079795
0.317429 0.000604715 -0.00218938
-1.61791e-029 1.22113e-031 -1.30509e-031
-4.76559e-029 7.83646e-033 -3.11594e-031
-5.54973e-029 3.03066e-031 -2.68198e-031
3.33189e-017 -5.27004e-019 8.30002e-019
-3.58483e-017 6.0759e-019 -7.9536e-019
0.291959 -0.00385083 0.00573623
-2.34163e-017 3.2603e-019 -3.8526e-019
0.303614 -0.00292625 0.00386825
0.303374 -0.00332906 0.0028838
1.3752e-030 -7.97331e-030 4.37444e-031
-0.180044 0.116725 -0.0215997
1.89734e-030 -3.64896e-030 5.59326e-031
0.0746726 0.216755 -0.0289695
-0.0599282 0.085462 -0.00564173
-1.35961e-017 6.96886e-018 1.71541e-020
0.00864543 0.137335 -0.00694742
-0.0680017 0.043351 -0.00509541
-0.0685613 0.180062 -0.0234844
-0.0040099 0.0769218 -0.0078337
-6.52878e-030 -3.56577e-030 -7.84028e-031
-5.25297e-029 -7.25689e-030 -1.01826e-030
-8.92457e-030 -1.93735e-029 2.66317e-031
0.205303 0.0442865 0.0346848
0.243344 0.087383 0.0208098
0.256246 0.197191 0.0501116
2.76625e-030 5.12042e-029 -3.16839e-029
5.61206e-017 5.27238e-017 1.25088e-017
-6.97603e-017 -4.50274e-017 -1.30437e-017
-2.11803e-029 -1.51486e-031 4.17498e-032
1.44638e-029 4.18231e-019 -6.75069e-029
6.21462e-017 -1.70072e-018 -1.2604e-020
0.308844 -0.000656898 0.00149339
-0.0936239 -0.265039 0.00271898
1.5792e-030 3.20396e-030 -5.19007e-032
-0.152423 -0.263847 -0.00469494
3.51429e-030 7.89712e-030 4.81251e-032
-0.0600353 -0.137725 0.00368422
-0.127053 -0.273107 -0.000829476
-0.0604736 -0.145739 0.0022958
-0.0838596 -0.152197 0.00166903
9.92159e-018 1.95745e-017 -4.79615e-019
-0.0733108 -0.139451 -0.000102909
-0.287234 -0.324917 -0.0316066
-0.267774 -0.485655 -0.0333134
-0.118508 -0.184047 -0.0160596
-0.22098 -0.281185 -0.0386447
-0.286038 -0.415764 -0.0334336
-0.197554 -0.272894 -0.0257606
-0.22415 -0.367446 -0.0412189
-0.133447 -0.206557 -0.0227462
-0.212095 -0.363575 -0.0304664
0.469774 0.00159863 8.61261e-005
-9.51922e-029 -2.58419e-031 3.4233e-031
-3.90398e-029 -1.82833e-031 5.22323e-032
0.482854 0.00210126 -0.000742884
0.30667 0.00243621 -0.000888374
0.289849 0.00240655 0.000644385
0.489834 0.00257971 -0.0010595
4.16053e-029 -8.23446e-030 -1.03438e-028
0.401094 -0.00145485 -0.00158322
0.352811 -0.000378232 -0.000336423
-1.7102e-029 2.54341e-032 1.60178e-032
-4.53113e-029 1.44238e-032 -7.30662e-033
-8.45836e-029 4.40831e-032 4.8056e-032
1.30051e-029 4.66988e-029 8.22933e-029
0.294341 -0.00046641 -0.000210602
6.39621e-017 3.16809e-019 -3.13647e-020
0.322586 0.000650175 0.000452283
-3.02692e-017 -9.92787e-020 2.82338e-020
0.294408 -8.22957e-005 -0.000401526
-2.56146e-029 4.60891e-032 -2.99408e-032
-4.9671e-029 5.33281e-032 -1.06426e-031
0.511469 -0.000580332 0.000259223
-8.58134e-029 1.1659e-031 -2.07361e-031
8.37699e-017 -2.0618e-019 4.13348e-019
0.386424 -0.000875808 0.000766069
-6.6083e-017 3.69959e-019 -1.67544e-019
0.39712 -0.000713439 0.00196792
3.13795e-017 5.70234e-020 2.07363e-019
0.376762 -0.00225527 0.000650112
0.468846 0.00115719 -0.000622218
-9.49881e-029 3.82235e-032 9.73904e-032
0.538293 0.000101982 -6.81273e-005
0.343893 0.000254227 -0.000354832
0.471851 0.00199591 0.000425466
0.375877 -0.00153923 0.00111022
0.544863 0.0019714 -0.000942494
0.382523 0.000804067 -0.000342825
1.26367e-029 1.22217e-031 -9.83657e-032
-0.346959 -0.00532234 0.00472014
8.40067e-017 9.16988e-019 -5.24833e-018
-0.46194 -0.00488635 0.00483424
-0.753402 -0.0107379 0.00452205
1.22191e-030 -5.48323e-029 3.40593e-030
1.48222e-031 -1.01017e-028 6.10931e-030
-0.00971905 0.637439 -0.038546
2.00662e-005 0.642541 -0.0392965
-0.0120546 0.443425 -0.0286352
1.3623e-018 -8.52282e-017 5.65404e-018
-0.00789299 0.526672 -0.0329362
0.000649948 0.553227 -0.00101107
0.0122623 0.284654 0.00263843
0.00432376 0.562855 -0.0066445
0.000163076 0.366487 0.000764719
0.0093289 0.446592 0.00157831
0.00346199 0.561429 -0.00399259
0.000374812 0.463237 0.00079159
0.00858753 0.442299 -0.00151518
0.00530824 0.353272 0.00179799
0.00197733 0.483854 -0.00181849
0.00737279 0.269423 0.00641863
0.00185403 0.38602 0.00596077
0.000959929 0.288259 0.00375606
8.28945e-029 1.5396e-030 6.52644e-031
1.39329e-028 2.81433e-030 9.54886e-031
2.48975e-029 2.90711e-031 1.18766e-031
-0.629902 -0.00809196 -0.00362039
-0.593947 -0.00892238 -0.00585136
-0.593681 -0.0100189 -0.00354268
-1.35717e-016 3.37322e-019 -1.86459e-018
-1.60363e-016 -2.95291e-018 -1.34656e-018
-1.5238e-016 -3.1373e-018 -1.84193e-018
7.14568e-031 2.68493e-030 -5.97154e-032
-0.163023 -0.483591 -0.00356589
3.99511e-030 1.9749e-029 1.1649e-031
1.50218e-030 7.31175e-030 -1.32284e-031
-0.0941105 -0.351599 0.00654768
4.39405e-030 -4.08509e-030 -2.6521e-029