# vtk DataFile Version 2.0 
output.vtk, Created by Freefem++, via gregorio
ASCII
DATASET UNSTRUCTURED_GRID
POINTS 7451 double
-3.79965 2.23652 0.040848
-4.13429 2.05574 0.276253
-4.09122 2.24524 0.070091
-4.01836 2.27766 0.330071
-3.96697 2.14613 0.158551
-3.94543 2.24088 0.0554695
-3.90901 2.25709 0.185459
-4.11275 2.15049 0.173172
-4.07633 2.1667 0.303162
-4.05479 2.26145 0.200081
-4.81817 0.732763 -0.840268
-4.76136 0.37264 -0.736193
-5.12328 0.495929 -0.550642
-4.73872 0.559667 -0.434419
-4.78977 0.552702 -0.788231
-4.97072 0.614346 -0.695455
-4.77845 0.646215 -0.637344
-4.94232 0.434285 -0.643417
-4.75004 0.466153 -0.585306
-4.931 0.527798 -0.49253
-7.58244 -0.891248 -0.453516
-8 -0.559587 0.124298
-7.26059 -0.264226 0.250847
-7.58828 -0.999993 0.00381
-7.79122 -0.725418 -0.164609
-7.42152 -0.577737 -0.101334
-7.58536 -0.94562 -0.224853
-7.6303 -0.411906 0.187573
-7.79414 -0.77979 0.064054
-7.42444 -0.632109 0.127328
-5.46564 0.048234 0.998836
-5.51396 -0.351144 0.936321
-5.02851 -0.125769 0.598961
-5.56665 -0.148801 0.504295
-5.4898 -0.151455 0.967578
-5.24708 -0.0387675 0.798898
-5.51614 -0.0502835 0.751565
-5.27124 -0.238457 0.767641
-5.5403 -0.249972 0.720308
-5.29758 -0.137285 0.551628
-4.20269 -2.80441 0.102764
-3.63085 -2.57461 -0.287529
-4.13183 -2.29387 0.255347
-4.14432 -2.47254 -0.273935
-3.91677 -2.68951 -0.0923825
-4.16726 -2.54914 0.179055
-4.1735 -2.63848 -0.0855855
-3.88134 -2.43424 -0.016091
-3.88759 -2.52358 -0.280732
-4.13807 -2.38321 -0.009294
-6.25062 -0.085247 0.575431
-6.51584 -0.423084 -0.15939
-6.46019 0.447486 0.293263
-6.75561 -0.174737 0.413139
-6.38323 -0.254165 0.20802
-6.35541 0.181119 0.434347
-6.88822 -0.343655 0.0457285
-6.86039 0.09163 0.272055
-6.48801 0.012201 0.0669365
-4.88162 0.371746 0.655425
-4.51246 -0.112716 0.623981
-4.65723 0.09269 0.995695
-4.69704 0.129515 0.639703
-4.95507 0.122989 0.627193
-4.76942 0.232218 0.82556
-4.77049 -0.119243 0.611471
-4.58484 -0.010013 0.809838
-4.84287 -0.0165395 0.797328
-3.75099 1.20677 0.090288
-3.64118 0.745776 0.266863
-4.09568 0.790235 0.315934
-3.78936 1.07086 0.69071
-3.69609 0.976272 0.178575
-3.92333 0.998502 0.203111
-3.77017 1.13882 0.390499
-3.86843 0.768006 0.291399
-3.71527 0.908319 0.478787
-3.94252 0.930549 0.503322
-2.18572 0.40145 0.915881
-1.75478 0.245881 0.526965
-1.94554 -0.013967 0.999902
-1.76886 0.356252 0.93439
-1.97025 0.323665 0.721423
-2.06563 0.193741 0.957891
-1.97729 0.378851 0.925135
-1.85016 0.115957 0.763433
-1.76182 0.301067 0.730678
-1.8572 0.171143 0.967146
-5.06116 0.824959 0.710182
-4.88551 0.773989 0.80113
-4.92155 0.772883 0.437198
-5.01596 0.602336 0.857802
-4.97333 0.799474 0.755656
-4.99135 0.798921 0.57369
-5.03856 0.713647 0.783992
-4.90353 0.773436 0.619164
-4.95074 0.688163 0.829466
-4.96876 0.687609 0.6475
-2.34262 2.51752 0.051733
-2.4672 2.85727 -0.311185
-2.29554 2.81673 0.086134
-2.65762 2.74748 0.16058
-2.40491 2.6874 -0.129726
-2.31908 2.66712 0.0689335
-2.50012 2.6325 0.106157
-2.38137 2.837 -0.112526
-2.56241 2.80238 -0.0753025
-2.47658 2.7821 0.123357
-3.50303 -3.76846 -0.636668
-3.49422 -3.29308 -1.15018
-3.31427 -3.71149 -1.25136
-2.90724 -3.34218 -0.858121
-3.49863 -3.53077 -0.893424
-3.40865 -3.73997 -0.944014
-3.20514 -3.55532 -0.747394
-3.40425 -3.50228 -1.20077
-3.20073 -3.31763 -1.00415
-3.11076 -3.52683 -1.05474
-4.0054 2.49156 -0.125899
-3.5956 2.50054 -0.194198
-3.83412 2.54803 0.0159
-3.8005 2.49605 -0.160049
-3.90253 2.36404 -0.0425255
-3.91976 2.5198 -0.0549995
-3.69763 2.36853 -0.076675
-3.71486 2.52428 -0.089149
-3.81689 2.39228 0.028374
-3.73452 -3.68531 -1.05781
-3.52439 -3.6984 -1.15459
-3.61437 -3.4892 -1.104
-3.61877 -3.72688 -0.84724
-6.37864 0.944563 0.328331
-6.25891 0.813305 0.581838
-6.65332 0.772267 0.635298
-6.31878 0.878934 0.455085
-6.41941 0.696025 0.310797
-6.51598 0.858415 0.481815
-6.35955 0.630395 0.43755
-6.45612 0.792786 0.608568
-6.55675 0.609877 0.46428
1.62066 -0.841518 -0.540229
1.89324 0.238579 -0.195511
2.01627 -0.690819 -0.723027
2.25185 -0.211859 0.261412
1.75695 -0.30147 -0.36787
1.81846 -0.766169 -0.631628
1.93625 -0.526689 -0.139408
1.95475 -0.22612 -0.459269
2.07254 0.01336 0.0329505
2.13406 -0.451339 -0.230807
-2.56949 2.06853 0.305158
-2.91403 1.60744 0.564909
-3.02709 2.08175 0.021586
-2.87501 2.07662 0.630995
-2.74176 1.83799 0.435033
-2.79829 2.07514 0.163372
-2.72225 2.07258 0.468077
-2.97056 1.8446 0.293247
-2.89452 1.84203 0.597952
-2.95105 2.07919 0.32629
-5.39985 0.358755 0.933432
-5.34934 0.453264 0.543553
-5.56264 0.558471 0.829524
-5.70805 0.297641 0.954678
-5.37459 0.40601 0.738492
-5.48124 0.458613 0.881478
-5.55395 0.328198 0.944055
-5.45599 0.505868 0.686538
-5.52869 0.375452 0.749116
-5.63535 0.428056 0.892101
-4.17913 0.323834 -0.696515
-4.36183 0.516245 -0.417662
-4.60784 0.019305 -0.528365
-4.46586 0.364911 -0.72315
-4.27048 0.42004 -0.557088
-4.39349 0.17157 -0.61244
-4.3225 0.344372 -0.709832
-4.48483 0.267775 -0.473013
-4.41384 0.440578 -0.570406
-4.53685 0.192108 -0.625757
-5.9377 0.438799 -0.558905
-5.87927 0.529091 -0.848565
-6.25926 0.555743 -0.831354
-6.07929 0.245277 -0.969453
-5.90849 0.483945 -0.703735
-6.09848 0.497271 -0.695129
-6.00849 0.342038 -0.764179
-6.06927 0.542417 -0.839959
-5.97928 0.387184 -0.909009
-6.16928 0.40051 -0.900404
-3.64743 2.72944 0.180305
-3.74077 2.63873 0.0981025
-3.72354 2.48298 0.110576
-3.62151 2.61499 -0.0069465
-3.98168 0.388062 0.141859
-3.76543 0.320245 0.603448
-3.81143 0.566919 0.204361
-3.70331 0.533011 0.435156
-4.03868 0.589149 0.228897
-3.87356 0.354154 0.372653
-3.93055 0.55524 0.459691
-6.17342 0.027823 -0.593282
-6.59748 0.255766 -0.966739
-6.35964 0.547779 -0.240473
-6.21634 0.291783 -0.712318
-6.42837 0.405755 -0.899047
-6.30945 0.551761 -0.535914
-6.38545 0.141794 -0.78001
-6.26653 0.287801 -0.416878
-6.47856 0.401772 -0.603606
-5.98474 0.742767 -0.66955
-5.96122 0.590783 -0.614227
-6.122 0.649255 -0.750452
-5.93201 0.635929 -0.759057
-5.86659 0.345457 -0.129882
-5.96054 -0.099592 -0.035866
-6.02 0.18664 -0.361582
-6.11312 0.446618 -0.185177
-5.91357 0.122933 -0.082874
-6.06698 -0.0358845 -0.314574
-6.16009 0.224094 -0.13817
-1.10421 0.363269 -0.931684
-0.773878 0.737644 -0.67519
-0.520452 0.269543 -0.962988
-0.384634 0.008888 -0.353445
-0.939043 0.550457 -0.803437
-0.812329 0.316406 -0.947336
-0.74442 0.186079 -0.642564
-0.647165 0.503594 -0.819089
-0.579256 0.373266 -0.514317
-0.452543 0.139215 -0.658216
-2.85287 -3.00249 -1.21636
-3.23054 -2.92385 -1.196
-3.06719 -3.3306 -1.25351
-2.88006 -3.17233 -1.03724
-3.06889 -3.13301 -1.02706
-2.98722 -3.33639 -1.05581
-3.0417 -2.96317 -1.20618
-2.96003 -3.16654 -1.23493
-3.14886 -3.12722 -1.22475
-3.38618 -2.05134 -0.098565
-2.37808 -2.56123 -0.134541
-2.49252 -2.47812 0.422472
-2.41131 -1.89586 0.044632
-2.88213 -2.30628 -0.116553
-2.93935 -2.26473 0.161954
-2.89875 -1.9736 -0.0269665
-2.4353 -2.51967 0.143966
-2.39469 -2.22855 -0.0449545
-2.45192 -2.18699 0.233552
-1.85713 -0.413967 0.42138
-1.65927 -0.390905 0.920431
-1.2503 -0.077569 0.384148
-1.80595 -0.084043 0.474172
-1.70702 -0.072512 0.723698
-1.50254 0.084156 0.455557
-1.7582 -0.402436 0.670905
-1.55371 -0.245768 0.402764
-1.45478 -0.234237 0.652289
-2.09043 2.55218 0.167395
-2.0659 2.66009 -0.048555
-2.19298 2.68445 0.126765
-2.18072 2.73841 0.0187895
-2.07816 2.60614 0.05942
-2.21652 2.53485 0.109564
-2.20426 2.58881 0.001589
-4.01665 2.44382 0.136481
-3.97233 2.67361 0.084512
-3.92539 2.49592 0.0761905
-3.99449 2.55872 0.110496
-4.01103 2.46769 0.005291
-3.90323 2.61082 0.050206
-3.98887 2.58259 -0.0206935
-3.92754 1.80484 -0.220103
-4.28096 1.83407 -0.225431
-4.13592 1.88983 -0.461486
-4.146 2.03152 -0.278406
-4.10425 1.81945 -0.222767
-4.03173 1.84734 -0.340795
-4.03677 1.91818 -0.249254
-4.20844 1.86195 -0.343458
-4.21348 1.9328 -0.251918
-4.14096 1.96068 -0.369946
-4.04038 -5 0.949212
-3.62468 -5 1.26221
-3.84559 -4.54287 1.07336
-3.71487 -5 0.728948
-3.83253 -5 1.10571
-3.94299 -4.77144 1.01129
-3.87763 -5 0.83908
-3.73513 -4.77144 1.16779
-3.66977 -5 0.99558
-3.78023 -4.77144 0.901156
-1.37334 0.812082 -0.583544
-0.975724 0.961208 -0.275823
-1.19336 -0.166381 -0.273753
-1.17453 0.886645 -0.429683
-1.07361 0.774863 -0.629367
-1.28335 0.32285 -0.428648
-0.874801 0.849426 -0.475506
-1.08454 0.397413 -0.274788
-0.983618 0.285631 -0.474471
-3.83515 -1.82017 -0.741539
-3.34976 -1.58414 -0.592596
-3.50394 -2.07825 -1.02313
-3.59245 -1.70215 -0.667067
-3.66955 -1.94921 -0.882335
-3.61067 -1.93575 -0.420052
-3.42685 -1.83119 -0.807863
-3.36797 -1.81774 -0.345581
-3.44506 -2.06479 -0.560848
-2.72946 0.769161 0.094533
-2.75119 0.681139 -0.326037
-2.98528 1.02631 -0.281501
-3.08113 0.734324 -0.34324
-2.74032 0.72515 -0.115752
-2.85737 0.897737 -0.093484
-2.90529 0.751742 -0.124353
-2.86823 0.853726 -0.303769
-2.91616 0.707731 -0.334639
-3.03321 0.880319 -0.31237
-2.94023 -2.47675 -0.674772
-3.14499 -2.03044 -0.633684
-3.22209 -2.2775 -0.848951
-3.16321 -2.26404 -0.386669
-3.03914 -4.25341 0.579285
-2.64287 -3.80807 0.20828
-2.47531 -4.18593 0.714333
-2.97264 -3.41482 0.618231
-2.84101 -4.03074 0.393783
-2.75723 -4.21967 0.646809
-3.00589 -3.83412 0.598758
-2.55909 -3.997 0.461307
-2.80776 -3.61144 0.413255
-2.72397 -3.80037 0.666282
-2.39684 -0.595487 -0.803365
-1.98884 -0.54749 -0.836812
-2.24172 -0.466498 -0.098067
-2.21295 -0.01831 -0.514797
-2.19284 -0.571489 -0.820088
-2.31928 -0.530992 -0.450716
-2.3049 -0.306899 -0.659081
-2.11528 -0.506994 -0.46744
-2.1009 -0.2829 -0.675804
-2.22734 -0.242404 -0.306432
-3.36239 -4.55484 -1.31864
-3.11171 -4.25429 -0.873787
-2.86199 -4.55394 -1.36046
-2.79118 -5 -0.96439
-3.23705 -4.40456 -1.09621
-3.11219 -4.55439 -1.33955
-3.07678 -4.77742 -1.14151
-2.98685 -4.40411 -1.11712
-2.95144 -4.62714 -0.919088
-2.82658 -4.77697 -1.16243
-3.88203 2.65205 -0.416886
-3.48121 2.84727 -0.340672
-3.82273 3 -0.474998
-3.72541 2.76868 -0.627028
-3.68162 2.74966 -0.378779
-3.85238 2.82603 -0.445942
-3.80372 2.71037 -0.521957
-3.65197 2.92364 -0.407835
-3.60331 2.80798 -0.48385
-3.77407 2.88434 -0.551013
[...]
POINT_DATA 7451
 
FIELD FieldData 2
velocity 3 7451 double
-0.122587 -0.347655 0.00966304
1.65245e-030 3.73197e-030 -2.08022e-031
4.79041e-031 1.30638e-030 -6.14568e-032
1.38234e-030 3.7154e-030 -1.90035e-031
-0.083495 -0.203906 0.0115655
-0.0726823 -0.199944 0.00935623
-0.0804128 -0.232691 0.0124124
-1.87612e-018 -4.5482e-018 3.18148e-019
5.67715e-018 1.41431e-017 -1.11784e-018
2.01422e-029 -8.64602e-030 -4.69628e-030
9.5531e-030 3.18001e-030 -2.1826e-031
-0.411537 -0.109245 0.00111147
-0.627598 -0.142561 0.00757311
-0.707662 -0.230815 0.00631698
-0.227364 -0.0769385 0.00709149
-0.306745 -0.0931634 0.0099247
-0.406012 -0.146895 0.00947859
-0.535838 -0.134287 0.00706855
-0.593632 -0.174545 0.00543228
-0.677197 -0.192635 0.00858439
1.0256e-028 -3.17914e-031 2.95753e-032
-0.848988 0.00733399 -0.000630102
-1.1075 5.23295e-005 -0.000611257
5.9217e-029 -2.38806e-031 5.71834e-032
-0.552904 0.00344805 7.9449e-005
-0.83718 1.57234e-005 -0.0025355
-1.34559e-016 2.51137e-019 -3.157e-019
-1.00976 0.00129279 -7.94913e-005
-0.480069 0.00635756 -0.000800276
-0.743343 0.00192679 -0.000179128
3.48919e-029 3.60614e-030 6.16612e-032
2.29711e-029 1.46554e-030 2.96694e-031
-0.701544 -0.105045 -0.0136682
-0.886771 -0.0624259 -0.005068
-1.47427e-016 -5.99616e-018 -1.45165e-018
-0.423464 -0.0481929 -0.00389118
-0.527234 -0.0335541 -0.00348723
-0.404202 -0.0313341 -0.00754205
-0.506349 -0.0232614 -0.00487415
-0.79982 -0.0860349 -0.00845398
-4.47533e-030 -6.85213e-029 2.1498e-030
0.0260741 0.422495 0.00289114
-4.88703e-030 -8.15041e-029 2.70111e-030
-8.5934e-031 -1.02169e-029 2.58633e-033
0.0234886 0.28706 -0.00376237
-5.19246e-017 -5.78681e-016 1.86456e-017
-3.97441e-018 -4.01233e-017 5.68011e-019
0.0266206 0.340605 -0.00579672
0.0219552 0.251347 0.000576463
-5.71494e-017 -6.12206e-016 1.07192e-017
-0.832657 -0.0163694 -0.00239241
-1.00577 -0.00959768 -0.00226094
-0.905353 -0.0130044 -0.00090003
-1.01292 -0.00261348 -0.000990124
-1.13486 -0.0173461 -0.0031885
-0.98726 -0.017247 -0.00228288
-1.11873 -0.00468116 -0.00387796
-1.17289 -0.00250038 -0.000471206
-1.27328 -0.0170218 -0.00154822
-0.564568 -0.186632 0.00453801
-0.570982 -0.101845 -0.0200581
1.98533e-029 5.42826e-030 2.08792e-031
-0.624749 -0.165443 -0.00818035
-0.690276 -0.154622 -0.00383369
-0.309989 -0.108717 0.0031522
-0.636004 -0.112096 -0.0187626
-0.34249 -0.092818 -0.010183
-0.390539 -0.0840053 -0.00821791
-0.430897 -0.455455 -0.0226914
-0.467383 -0.267311 -0.0507709
-0.606925 -0.337956 -0.015091
-0.239882 -0.301263 -0.000786125
-0.465926 -0.387446 -0.0396722
-0.520531 -0.399635 -0.0203798
-0.394634 -0.419184 -0.016555
-0.554843 -0.311594 -0.0328052
-0.387485 -0.329099 -0.0249316
-0.423779 -0.335807 -0.00804997
-1.82101e-029 -6.91105e-030 1.25538e-030
0.348891 0.0528369 -0.00673324
-2.18605e-029 -6.60123e-030 -3.95436e-031
-4.62277e-030 -2.50164e-031 3.04289e-032
0.188295 0.0302196 -0.0063912
6.03255e-017 6.10943e-018 2.23198e-018
3.22369e-018 2.3282e-019 -3.20725e-020
0.213369 0.0178642 -0.00148495
0.199134 0.0115808 0.000905604
-6.92938e-017 -8.80981e-019 -8.1132e-019
2.5002e-017 1.16144e-017 -6.94677e-019
2.92474e-030 1.33325e-030 -5.56779e-032
-0.509181 -0.210858 0.0088663
3.12425e-030 1.27676e-030 -5.80797e-032
1.25068e-017 6.26208e-018 -3.87141e-019
-0.286821 -0.12682 0.00664898
1.54873e-016 6.94981e-017 -2.24617e-018
-0.286969 -0.13843 0.00766483
1.52461e-016 7.79314e-017 -3.37132e-018
-0.316512 -0.135104 0.00574456
-0.0332228 -0.236463 -0.0137395
-0.0204286 -0.251702 -0.0089066
-0.0125958 -0.235915 -0.00708713
-0.0523946 -0.498848 -0.015528
-0.0290076 -0.266599 -0.0113098
-0.0231684 -0.237286 -0.0105933
-0.0456416 -0.378346 -0.0165984
-0.018797 -0.2691 -0.00957977
-0.0381833 -0.394597 -0.0125928
-0.0321557 -0.382905 -0.0119441
0.0111779 0.271867 0.00816325
-6.8276e-031 -2.21284e-029 -1.11954e-030
-3.41347e-031 -1.69697e-029 -9.56287e-031
-0.00172024 0.228487 0.012964
0.00636531 0.14612 0.00813828
0.00548551 0.143335 0.00815566
0.00466462 0.278028 0.0117631
2.34132e-029 2.35273e-030 6.80223e-029
0.00212811 0.13683 0.00926767
0.00107486 0.117952 0.00833834
1.02064e-030 3.75893e-030 -1.06961e-031
-0.0907442 -0.371309 0.00395984
-0.0485655 -0.229624 0.00504204
-0.0581385 -0.233445 0.00634195
-0.0603912 -0.194303 0.00625656
-0.0276582 -0.117307 0.003444
-0.11056 -0.372023 0.00593289
-0.0761953 -0.329731 0.00573763
-0.0825355 -0.287257 0.00766929
-2.761e-031 -4.97451e-030 -2.44301e-031
-3.60999e-018 -6.9932e-017 -5.19093e-018
3.53758e-018 6.25221e-017 4.54648e-018
0.00762003 0.138209 0.00673434
1.08837e-029 1.85955e-031 1.96372e-033
1.44197e-029 2.40972e-031 1.68906e-032
1.88121e-029 2.00147e-031 4.5786e-032
6.95976e-017 1.53915e-018 8.34992e-020
-0.521228 -0.0128295 -0.000490939
-5.25486e-030 -4.76621e-029 -2.40747e-029
-0.511707 -0.00650509 -0.000655236
-1.81856e-017 8.20397e-019 -3.85795e-020
-0.520771 -0.00587176 -0.00102479
-1.58798e-028 4.00075e-031 -7.67187e-032
0.485961 0.000581689 0.000721804
-5.87191e-029 3.97426e-032 -1.38332e-031
0.473447 -0.00219512 0.00130754
0.416581 -0.00125986 0.000283166
-6.68092e-017 3.33697e-020 -3.04962e-019
0.375927 -0.000215916 0.0013626
0.39409 0.000709798 0.000857976
0.536224 -0.00104181 0.00163586
0.397475 -0.0011497 0.00174093
-0.0806077 -0.330807 -0.0294457
-0.119193 -0.346422 -0.0349864
-0.171292 -0.534052 -0.0265166
-0.0914685 -0.417211 -0.0220369
-0.107458 -0.366054 -0.0354023
-0.13511 -0.483002 -0.0343202
-0.0941968 -0.4045 -0.0304317
-0.179056 -0.520415 -0.0386892
-0.10888 -0.389157 -0.0290611
-0.152756 -0.553878 -0.0321316
3.29184e-030 4.34346e-031 -7.19221e-032
-0.669723 -0.12395 0.00999184
7.11881e-030 5.70413e-031 -1.24562e-031
3.16058e-029 2.10957e-030 -1.61497e-031
-0.377318 -0.0499294 0.0102472
-9.80486e-017 -7.73594e-018 3.39854e-018
1.36427e-016 6.13972e-018 -3.93831e-018
-0.364882 -0.0441842 0.00886783
-0.380834 -0.0310951 0.00696803
-2.22433e-017 -6.9615e-019 7.73512e-019
-0.404256 -0.10167 -0.0145477
-0.6878 -0.233409 -0.0113176
-0.729876 -0.112777 -0.00683619
-0.409539 -0.117992 -0.00507997
-0.567854 -0.169868 -0.0140391
-0.583614 -0.118202 -0.0114816
-0.411503 -0.114114 -0.00958549
-0.74447 -0.174913 -0.01151
-0.579517 -0.181535 -0.00654006
-0.594498 -0.127396 -0.00633326
-0.62815 -0.0135494 0.00196458
3.54166e-030 4.13768e-032 -7.4692e-033
3.15501e-029 3.83529e-031 -1.6286e-031
1.45259e-029 1.94932e-031 -2.9676e-032
-0.338481 -0.00334402 0.00131335
-0.336019 -0.00628392 0.00284652
-0.36662 -0.00422456 0.00203986
-2.40091e-016 -1.90064e-018 2.11669e-018
-1.15748e-016 -2.34996e-019 1.0529e-018
-1.16683e-029 -2.2615e-029 5.077e-029
-0.0588751 -0.397538 0.00552412
-0.0558187 -0.320822 0.00569913
-0.0867901 -0.369634 0.00678412
-0.0794775 -0.413016 0.00419881
-0.74276 -0.156135 -0.0446254
-0.409752 -0.0374413 -0.0218266
-0.605306 -0.207285 -0.0504932
-0.464813 -0.146375 -0.0412121
-0.696034 -0.265601 -0.0318899
-0.615803 -0.098626 -0.0381291
-0.548073 -0.21061 -0.023423
-0.813044 -0.0103107 0.000551076
-3.67405e-017 4.34746e-020 8.29744e-020
-0.81341 -0.00909865 0.00354218
-0.50821 -0.00732974 0.00302059
-2.64329e-029 -3.23072e-029 6.37261e-029
-0.508264 -0.00581072 0.00457758
-0.461739 -0.00797024 0.00171962
-0.944475 -0.0126294 0.00307965
-0.592026 -0.00285351 0.00304252
5.72373e-030 9.97125e-032 -9.35783e-033
-0.34307 -0.00642979 0.00204959
-7.74363e-017 -1.25994e-018 8.303e-019
-1.02268e-016 -8.34648e-019 6.62529e-019
-1.11618 -0.0514354 0.00294523
-1.25098 -0.0418613 -0.00322053
-1.06273 -0.0266148 0.000724024
-0.981119 -0.0224524 0.00354505
-1.24887 -0.0507723 0.000247528
-1.14146 -0.0262904 -0.0014481
-1.18996 -0.0274521 0.00150122
1.98641e-017 -1.52641e-019 -3.14148e-019
-5.17939e-029 4.95287e-031 5.01088e-031
-1.92011e-029 5.72082e-032 1.00181e-031
0.477074 -0.00457423 -0.000862756
-3.05581e-017 2.81098e-019 4.43589e-019
1.42636e-029 -3.42402e-029 1.03506e-028
0.291268 -0.00293309 -0.002918
-3.14808e-017 1.02905e-019 3.20904e-019
0.325924 -0.00363647 -0.00232029
0.294337 0.000101566 -0.00200226
8.2067e-032 -7.72125e-030 -6.03813e-031
-3.39697e-031 -2.37065e-029 -1.43084e-030
-5.98005e-033 -2.8605e-030 -2.13491e-031
-0.00125122 0.120262 0.0092563
0.00196766 0.127238 0.0101083
2.56036e-005 0.115981 0.00811971
-7.00131e-019 1.40806e-030 5.57375e-029
-8.11569e-020 2.70894e-017 2.41896e-018
6.33578e-019 -5.72768e-017 -5.21627e-018
0.0215223 0.695967 -0.00776844
-0.0252067 0.504392 -0.00187093
-0.0276474 0.717836 -0.0386144
-0.0277955 0.649132 -0.0188183
-0.00716713 0.738855 -0.00511808
-0.00370947 0.895393 -0.0275316
-0.00636745 0.841337 -0.0165485
-0.0277499 0.659358 -0.0170862
-0.0266858 0.578446 -0.0077279
-0.0290902 0.711831 -0.0302563
0.366662 0.162265 0.0246354
-2.80617e-029 -1.85636e-030 -2.06425e-031
0.456505 0.0153358 -0.00233669
0.408829 0.106387 -0.000242276
0.246387 0.008119 -0.000853324
0.422769 0.033577 -0.00201479
0.195237 0.00556179 0.00931692
0.412671 0.0529757 -0.00107918
0.268266 0.00131604 -0.00300554
-1.9553e-018 -2.71703e-017 -1.22776e-018
1.1685e-031 1.3268e-030 6.50634e-032
-0.00755191 -0.120161 -0.00453644
-0.0080828 -0.115086 -0.00401408
-4.14637e-018 -5.20868e-017 -2.22354e-018
-0.0166086 -0.129748 -0.00752116
-0.015287 -0.121808 -0.0078848
-7.43698e-018 -3.00929e-017 1.13977e-018
3.00444e-031 1.90684e-030 -4.09191e-032
-0.0312323 -0.1334 0.00428806
1.25035e-017 6.64225e-017 -1.6476e-018
2.16459e-029 -7.12463e-030 -1.27707e-031
-0.0212059 -0.130983 0.00194302
2.18326e-017 1.18552e-016 -2.54552e-018
-0.184132 -0.295451 0.00824742
1.56363e-030 2.18539e-030 -1.23149e-031
7.36808e-031 1.18192e-030 -6.04997e-032
5.53087e-031 9.61406e-031 -5.08437e-032
-0.113065 -0.170152 0.00968127
-0.103283 -0.165023 0.008481
-0.100199 -0.169883 0.00879605
-5.15189e-017 -7.77044e-017 5.81947e-018
-2.8667e-016 -4.5487e-016 3.39506e-017
-1.97915e-016 -3.32498e-016 2.3365e-017
-1.42802e-031 -4.38377e-030 1.93596e-031
-2.23904e-031 -1.30039e-029 6.17241e-031
-6.8174e-031 -2.20452e-029 1.23899e-030
0.0101818 0.415458 -0.0150599
-3.64351e-018 -1.69842e-016 8.08814e-018
-5.88364e-019 -1.91955e-017 1.01941e-018
0.0065854 0.250279 -0.00977675
3.24541e-018 1.3067e-016 -2.0901e-018
0.0061415 0.313401 -0.0147042
0.00910986 0.303419 -0.0161265
-5.98465e-029 -5.56544e-032 1.3405e-030
-6.28607e-029 4.07529e-031 6.75655e-031
0.480811 -0.0115849 0.000118722
2.52855e-017 3.53363e-020 -6.36666e-019
-2.75057e-017 1.55362e-019 6.19839e-019
0.384027 -0.0031618 -0.00821057
-6.25225e-017 5.41745e-019 6.13433e-019
0.420456 -0.00184238 -0.00593305
0.370476 -0.00553448 -0.00331521
5.95122e-020 9.00517e-019 4.41467e-020
0.00717234 0.401088 0.0162813
-2.29753e-030 -6.40762e-029 -2.22337e-030
0.00823434 0.219202 0.0105706
-8.93747e-018 -7.14683e-017 -9.54973e-018
0.019583 0.388897 0.00859336
0.00754149 0.187747 0.0124429
0.0147986 0.579879 0.00788159
0.0157511 0.380093 0.0137787
0.0200964 -0.0569251 -0.0515004
0.0191743 -0.0110692 -0.0339615
-0.128942 -0.209325 -0.0355916
-0.135661 -0.100882 -0.0473269
0.0178778 -0.0448375 -0.0473885
-0.0619973 -0.160461 -0.0468457
-0.0628328 -0.103405 -0.0565749
-0.0455342 -0.0933391 -0.0321762
-0.0514691 -0.0538417 -0.041125
-0.126461 -0.158564 -0.0420125
-0.00171259 0.366322 0.0168902
0.0069101 0.411479 0.0171068
0.00723709 0.227168 0.0137037
0.00905051 0.570889 0.0101375
0.000664581 0.674815 -0.032051
-0.0158829 0.662625 -0.018356
-0.0173884 0.547382 -0.0338605
-0.000646855 0.751571 -0.0466065
-0.00827663 0.717596 -0.0256692
-0.00978127 0.668263 -0.0357469
0.000341191 0.714123 -0.0400799
-0.0188001 0.650479 -0.0271055
-0.0103099 0.75142 -0.0300122
-0.0128936 0.684007 -0.0415155
1.78315e-017 5.3829e-017 3.75455e-018
5.69436e-017 1.41397e-018 9.77655e-020
0.401819 0.439133 -0.0212267
0.302139 0.107166 -0.0260082
1.46743e-029 3.95667e-029 4.47452e-029
0.265825 0.292728 -0.0148039
0.201745 0.112059 -0.0179946
0.299583 0.16776 -0.0169431
0.231715 0.0572548 -0.0124614
0.385122 0.24979 -0.0292137
8.03484e-019 2.11201e-017 1.63416e-018
0.00198954 0.20926 0.00805796
2.0382e-031 -1.43382e-029 -5.17803e-031
-0.00166445 0.155756 0.00235002
0.00230667 0.0998733 0.0056943
1.33612e-018 3.33685e-017 4.433e-018
0.000571526 0.0893462 0.00315449
-4.89794e-005 0.099721 0.00531236
-0.000656413 0.186301 0.00440769
-0.00105423 0.0783168 0.00274265
6.68879e-031 3.61744e-030 -7.54177e-032
-0.0414449 -0.322193 0.00193453
6.2218e-031 1.15992e-029 -1.10665e-031
1.06793e-030 5.28968e-030 -9.43791e-032
-0.027835 -0.190202 0.00366361
-2.85878e-017 -2.42891e-016 5.44174e-018
2.40775e-029 -5.24005e-030 1.67875e-029
-0.0179715 -0.184017 0.00207844
-0.0258053 -0.176567 0.00174927
-2.28843e-017 -1.98017e-016 2.83936e-018
0.517172 -0.00028589 -0.0001787
-2.18912e-029 2.74845e-032 -4.78211e-033
-2.27611e-029 1.43798e-032 4.4231e-033
-3.87726e-029 5.3313e-032 7.01907e-033
0.347513 0.000135926 -8.69629e-005
0.349134 -0.000132495 -0.000229756
0.34707 -0.000302383 6.12282e-005
1.53362e-029 -6.50041e-020 1.00972e-019
1.39064e-029 4.14433e-021 -1.12131e-020
2.53808e-017 -1.69314e-020 -1.49446e-030
0.201985 0.747557 -0.0466751
-0.0112002 0.790582 -0.0293559
-0.0170765 0.930307 -0.089901
0.0360907 0.707841 -0.00584634
0.0920862 0.894827 -0.0539659
0.0690983 0.881229 -0.0776564
0.136475 0.838084 -0.0402992
-0.0175911 0.974247 -0.0674333
0.0524858 0.809368 -0.0200862
0.0434822 0.978407 -0.0584795
-8.20375e-029 1.17776e-031 2.31145e-032
-4.82981e-029 9.16125e-032 9.32597e-032
-5.9979e-029 4.80098e-031 -5.65698e-032
0.472966 -0.00386232 0.000152003
1.97288e-017 1.05271e-019 -9.78131e-020
3.84645e-019 -4.45201e-022 -4.69275e-022
0.373296 4.81935e-005 -0.00126427
9.08041e-019 -2.22743e-022 3.72337e-030
0.333245 0.00052882 -0.000990223
0.379342 -0.00257677 0.00071055
8.88055e-030 5.17853e-030 -2.69998e-031
-0.394586 -0.24009 0.0117605
3.02389e-030 1.79565e-030 -1.12876e-031
-0.268706 -0.172494 0.0101437
-0.260723 -0.139658 0.00812214
5.74116e-016 3.87266e-016 -2.91798e-017
-0.452062 -0.228767 0.010237
-0.237625 -0.15601 0.0114436
-0.250361 -0.137796 0.00814548
-0.841216 0.000947555 0.00603285
1.94222e-028 -2.53314e-031 -2.85343e-031
1.4432e-029 -9.43474e-032 -1.80475e-031
-0.840153 0.00521243 0.00298673
-0.556686 0.00279138 0.00282138
-0.501332 -0.000362736 0.00637666
-0.930105 0.0041156 0.00362884
-2.49367e-029 3.53625e-029 6.57979e-029
-0.473462 0.00440466 0.00198017
-0.505929 0.00647727 0.00357635
-3.90523e-029 3.40011e-031 1.9991e-031
-1.43002e-029 1.98857e-031 1.62429e-031
-2.20914e-029 -9.77302e-031 -7.29196e-033
-4.55285e-017 1.96338e-018 3.14687e-019
-1.17806e-018 1.67178e-020 3.47326e-020
0.297438 -0.00206855 -0.00131605
-1.6157e-017 3.92871e-019 5.54028e-019
0.274536 -0.00508632 -0.00222806
0.283869 0.00472626 -0.0102613
-8.57074e-029 1.41606e-030 -3.25361e-031
0.381521 -0.00640009 0.000711584
0.319235 -0.0098013 0.00214941
0.345833 -0.0069771 0.000833167
0.530943 -0.00838669 0.000109328
0.548708 -0.00564185 -8.97989e-005
0.483237 -0.0104641 -0.000473866
-1.87247e-029 -2.34108e-031 3.18462e-032
-3.51586e-029 4.32056e-031 -2.19378e-032
5.36315e-017 -2.51757e-018 -2.98266e-019
4.69106e-017 -1.90545e-018 -3.29182e-019
0.278741 -0.00250309 -0.000747884
4.20202e-018 -2.05449e-019 -4.85454e-020
0.286564 -0.00351967 -0.00278564
-6.55929e-029 2.78004e-031 2.66999e-031
0.472616 0.00157599 -0.000704674
-4.36307e-029 1.54894e-031 1.13001e-031
0.289255 -0.00154913 -0.000826614
-9.74309e-017 1.63428e-019 6.99078e-019
0.370255 -0.00306862 -0.00187232
0.300905 -0.000111329 -0.000781314
0.495466 -0.00159508 -0.000800695
0.317915 0.000603217 -0.00218367
-1.75408e-029 1.3261e-031 -1.41301e-031
-5.16769e-029 7.79862e-033 -3.37531e-031
-6.01795e-029 3.2759e-031 -2.91001e-031
3.33467e-017 -5.2745e-019 8.29609e-019
-3.5877e-017 6.07536e-019 -7.95516e-019
0.29239 -0.00386039 0.00573775
-2.34364e-017 3.25457e-019 -3.85107e-019
0.304076 -0.00292727 0.00386579
0.303824 -0.00332474 0.00288715
1.48784e-030 -8.65594e-030 4.75521e-031
-0.180498 0.117411 -0.0216576
2.05757e-030 -3.96796e-030 6.08266e-031
0.0750019 0.217198 -0.0290758
-0.0600442 0.0856833 -0.0056584
1.89161e-018 6.97187e-018 1.83955e-020
0.00877488 0.137761 -0.00697984
-0.0681581 0.0435029 -0.00511849
-0.0687206 0.180757 -0.0235975
-0.00395521 0.0772358 -0.00787588
-7.0691e-030 -3.92579e-030 -8.89194e-031
-5.69628e-029 -7.82754e-030 -1.19204e-030
-9.68603e-030 -2.10995e-029 2.78191e-031
0.204978 0.0454142 0.0361153
0.243306 0.0880927 0.0219566
0.256331 0.198686 0.0516484
2.9909e-030 5.54431e-029 -3.42745e-029
5.60991e-017 5.33455e-017 1.30076e-017
-6.97396e-017 -4.53411e-017 -1.35127e-017
-2.29644e-029 -2.1083e-031 6.84702e-032
-1.34972e-017 -2.14581e-029 -6.48316e-020
5.22028e-017 -1.60815e-018 -4.40016e-020
0.309248 -0.000135399 0.00130747
-0.093819 -0.265693 0.0028057
1.7135e-030 3.47635e-030 -5.69234e-032
-0.152757 -0.264305 -0.0045387
3.81268e-030 8.57252e-030 5.09354e-032
-0.0601788 -0.138063 0.00369073
-0.127331 -0.273721 -0.000685302
-0.0605985 -0.146137 0.00229086
-0.0840425 -0.152486 0.00169033
9.94236e-018 1.96201e-017 -4.72271e-019
-0.0734642 -0.139763 -0.000106011
-0.288116 -0.325316 -0.0316879
-0.268885 -0.486361 -0.0343324
-0.118738 -0.18432 -0.0159931
-0.22161 -0.281826 -0.0388702
-0.287003 -0.416554 -0.0338115
-0.198054 -0.273094 -0.0257399
-0.224889 -0.368297 -0.0418664
-0.13374 -0.206942 -0.0227098
-0.212759 -0.364054 -0.0306221
0.470891 0.00161009 8.47492e-005
-1.0326e-028 -2.82989e-031 3.72799e-031
-4.23364e-029 -1.99189e-031 5.68208e-032
0.484047 0.00210344 -0.00074453
0.307188 0.00245525 -0.000898971
0.290297 0.00241466 0.000645583
0.491015 0.00258605 -0.001069
4.51174e-029 -8.91289e-030 -1.1198e-028
0.401844 -0.00144903 -0.00159015
0.353393 -0.000375216 -0.000337107
-1.8544e-029 2.72184e-032 1.73521e-032
-4.91447e-029 1.44222e-032 -7.29315e-033
-9.17526e-029 4.7961e-032 5.32365e-032
1.40998e-029 5.05542e-029 8.90863e-029
0.294807 -0.000463628 -0.000207454
6.40293e-017 3.18128e-019 -3.37517e-020
0.323135 0.000661896 0.000445029
-3.03138e-017 -1.00804e-019 2.95527e-020
0.294902 -7.87029e-005 -0.000409037
-2.77822e-029 5.03628e-032 -3.29925e-032
-5.388e-029 5.85961e-032 -1.15879e-031
0.512901 -0.000581775 0.000266888
-9.3095e-029 1.25913e-031 -2.25526e-031
8.38929e-017 -2.09392e-019 4.16217e-019
0.387145 -0.000886429 0.000775582
-6.61774e-017 3.72852e-019 -1.68516e-019
0.397889 -0.000723773 0.00198032
3.14305e-017 5.69764e-020 2.07996e-019
0.377482 -0.00226759 0.000651899
0.469977 0.00115045 -0.000622139
-1.03043e-028 4.34586e-032 1.05538e-031
0.539648 8.67771e-005 -7.16374e-005
0.344501 0.000250165 -0.000345899
0.472948 0.00199132 0.000424398
0.376591 -0.00155323 0.00111265
0.546291 0.00196964 -0.000950428
0.383234 0.000804012 -0.000344274
1.37068e-029 1.31308e-031 -1.07889e-031
-0.347569 -0.00529516 0.00475581
8.41328e-017 9.13099e-019 -3.27697e-018
-0.462792 -0.00486354 0.00487754
-0.755187 -0.0106663 0.00460394
1.33172e-030 -6.36385e-029 4.19855e-030
1.57442e-031 -1.17476e-028 7.56447e-030
-0.00984261 0.688099 -0.0438081
8.87055e-005 0.697017 -0.0445549
-0.0122409 0.482012 -0.0324577
1.40072e-018 -9.42939e-017 6.35928e-018
-0.00810285 0.575902 -0.0373614
0.000629411 0.518347 -0.00383569
0.011983 0.277346 0.00190754
0.00413777 0.526809 -0.00979464
0.000110601 0.353414 -0.000877251
0.00910884 0.424419 -0.00022085
0.00331602 0.524629 -0.00700338
0.00031135 0.439397 -0.00127655
0.00835337 0.416919 -0.00349685
0.00512905 0.341922 0.000420368
0.00184992 0.454666 -0.00417552
0.00721539 0.266821 0.0058745
0.0018183 0.375352 0.00474025
0.000913306 0.284654 0.00278245
8.99637e-029 1.67206e-030 7.21095e-031
1.51246e-028 3.04417e-030 1.05734e-030
2.70138e-029 3.14606e-031 1.31516e-031
-0.631376 -0.00809891 -0.00370486
-0.595309 -0.00888005 -0.00594268
-0.595002 -0.0100255 -0.00360936
-1.35991e-016 3.44988e-019 -1.91015e-018
-1.60647e-016 -2.95886e-018 -1.37307e-018
-1.52639e-016 -3.13231e-018 -1.86997e-018
7.82235e-031 2.96309e-030 -6.50895e-032
-0.164513 -0.491847 -0.00420368
4.37335e-030 2.18156e-029 1.43781e-031
1.64547e-030 8.0738e-030 -1.45391e-031
-0.0951569 -0.358341 0.00657998
4.75068e-030 -4.47044e-030 -2.87095e-029
-4.2993e-017 -2.10852e-016 7.43112e-018