# vtk DataFile Version 2.0 
output.vtk, Created by Freefem++, via gregorio
ASCII
DATASET UNSTRUCTURED_GRID
POINTS 7451 double
-3.79965 2.23652 0.040848
-4.13429 2.05574 0.276253
-4.09122 2.24524 0.070091
-4.01836 2.27766 0.330071
-3.96697 2.14613 0.158551
-3.94543 2.24088 0.0554695
-3.90901 2.25709 0.185459
-4.11275 2.15049 0.173172
-4.07633 2.1667 0.303162
-4.05479 2.26145 0.200081
-4.81817 0.732763 -0.840268
-4.76136 0.37264 -0.736193
-5.12328 0.495929 -0.550642
-4.73872 0.559667 -0.434419
-4.78977 0.552702 -0.788231
-4.97072 0.614346 -0.695455
-4.77845 0.646215 -0.637344
-4.94232 0.434285 -0.643417
-4.75004 0.466153 -0.585306
-4.931 0.527798 -0.49253
-7.58244 -0.891248 -0.453516
-8 -0.559587 0.124298
-7.26059 -0.264226 0.250847
-7.58828 -0.999993 0.00381
-7.79122 -0.725418 -0.164609
-7.42152 -0.577737 -0.101334
-7.58536 -0.94562 -0.224853
-7.6303 -0.411906 0.187573
-7.79414 -0.77979 0.064054
-7.42444 -0.632109 0.127328
-5.46564 0.048234 0.998836
-5.51396 -0.351144 0.936321
-5.02851 -0.125769 0.598961
-5.56665 -0.148801 0.504295
-5.4898 -0.151455 0.967578
-5.24708 -0.0387675 0.798898
-5.51614 -0.0502835 0.751565
-5.27124 -0.238457 0.767641
-5.5403 -0.249972 0.720308
-5.29758 -0.137285 0.551628
-4.20269 -2.80441 0.102764
-3.63085 -2.57461 -0.287529
-4.13183 -2.29387 0.255347
-4.14432 -2.47254 -0.273935
-3.91677 -2.68951 -0.0923825
-4.16726 -2.54914 0.179055
-4.1735 -2.63848 -0.0855855
-3.88134 -2.43424 -0.016091
-3.88759 -2.52358 -0.280732
-4.13807 -2.38321 -0.009294
-6.25062 -0.085247 0.575431
-6.51584 -0.423084 -0.15939
-6.46019 0.447486 0.293263
-6.75561 -0.174737 0.413139
-6.38323 -0.254165 0.20802
-6.35541 0.181119 0.434347
-6.88822 -0.343655 0.0457285
-6.86039 0.09163 0.272055
-6.48801 0.012201 0.0669365
-4.88162 0.371746 0.655425
-4.51246 -0.112716 0.623981
-4.65723 0.09269 0.995695
-4.69704 0.129515 0.639703
-4.95507 0.122989 0.627193
-4.76942 0.232218 0.82556
-4.77049 -0.119243 0.611471
-4.58484 -0.010013 0.809838
-4.84287 -0.0165395 0.797328
-3.75099 1.20677 0.090288
-3.64118 0.745776 0.266863
-4.09568 0.790235 0.315934
-3.78936 1.07086 0.69071
-3.69609 0.976272 0.178575
-3.92333 0.998502 0.203111
-3.77017 1.13882 0.390499
-3.86843 0.768006 0.291399
-3.71527 0.908319 0.478787
-3.94252 0.930549 0.503322
-2.18572 0.40145 0.915881
-1.75478 0.245881 0.526965
-1.94554 -0.013967 0.999902
-1.76886 0.356252 0.93439
-1.97025 0.323665 0.721423
-2.06563 0.193741 0.957891
-1.97729 0.378851 0.925135
-1.85016 0.115957 0.763433
-1.76182 0.301067 0.730678
-1.8572 0.171143 0.967146
-5.06116 0.824959 0.710182
-4.88551 0.773989 0.80113
-4.92155 0.772883 0.437198
-5.01596 0.602336 0.857802
-4.97333 0.799474 0.755656
-4.99135 0.798921 0.57369
-5.03856 0.713647 0.783992
-4.90353 0.773436 0.619164
-4.95074 0.688163 0.829466
-4.96876 0.687609 0.6475
-2.34262 2.51752 0.051733
-2.4672 2.85727 -0.311185
-2.29554 2.81673 0.086134
-2.65762 2.74748 0.16058
-2.40491 2.6874 -0.129726
-2.31908 2.66712 0.0689335
-2.50012 2.6325 0.106157
-2.38137 2.837 -0.112526
-2.56241 2.80238 -0.0753025
-2.47658 2.7821 0.123357
-3.50303 -3.76846 -0.636668
-3.49422 -3.29308 -1.15018
-3.31427 -3.71149 -1.25136
-2.90724 -3.34218 -0.858121
-3.49863 -3.53077 -0.893424
-3.40865 -3.73997 -0.944014
-3.20514 -3.55532 -0.747394
-3.40425 -3.50228 -1.20077
-3.20073 -3.31763 -1.00415
-3.11076 -3.52683 -1.05474
-4.0054 2.49156 -0.125899
-3.5956 2.50054 -0.194198
-3.83412 2.54803 0.0159
-3.8005 2.49605 -0.160049
-3.90253 2.36404 -0.0425255
-3.91976 2.5198 -0.0549995
-3.69763 2.36853 -0.076675
-3.71486 2.52428 -0.089149
-3.81689 2.39228 0.028374
-3.73452 -3.68531 -1.05781
-3.52439 -3.6984 -1.15459
-3.61437 -3.4892 -1.104
-3.61877 -3.72688 -0.84724
-6.37864 0.944563 0.328331
-6.25891 0.813305 0.581838
-6.65332 0.772267 0.635298
-6.31878 0.878934 0.455085
-6.41941 0.696025 0.310797
-6.51598 0.858415 0.481815
-6.35955 0.630395 0.43755
-6.45612 0.792786 0.608568
-6.55675 0.609877 0.46428
1.62066 -0.841518 -0.540229
1.89324 0.238579 -0.195511
2.01627 -0.690819 -0.723027
2.25185 -0.211859 0.261412
1.75695 -0.30147 -0.36787
1.81846 -0.766169 -0.631628
1.93625 -0.526689 -0.139408
1.95475 -0.22612 -0.459269
2.07254 0.01336 0.0329505
2.13406 -0.451339 -0.230807
-2.56949 2.06853 0.305158
-2.91403 1.60744 0.564909
-3.02709 2.08175 0.021586
-2.87501 2.07662 0.630995
-2.74176 1.83799 0.435033
-2.79829 2.07514 0.163372
-2.72225 2.07258 0.468077
-2.97056 1.8446 0.293247
-2.89452 1.84203 0.597952
-2.95105 2.07919 0.32629
-5.39985 0.358755 0.933432
-5.34934 0.453264 0.543553
-5.56264 0.558471 0.829524
-5.70805 0.297641 0.954678
-5.37459 0.40601 0.738492
-5.48124 0.458613 0.881478
-5.55395 0.328198 0.944055
-5.45599 0.505868 0.686538
-5.52869 0.375452 0.749116
-5.63535 0.428056 0.892101
-4.17913 0.323834 -0.696515
-4.36183 0.516245 -0.417662
-4.60784 0.019305 -0.528365
-4.46586 0.364911 -0.72315
-4.27048 0.42004 -0.557088
-4.39349 0.17157 -0.61244
-4.3225 0.344372 -0.709832
-4.48483 0.267775 -0.473013
-4.41384 0.440578 -0.570406
-4.53685 0.192108 -0.625757
-5.9377 0.438799 -0.558905
-5.87927 0.529091 -0.848565
-6.25926 0.555743 -0.831354
-6.07929 0.245277 -0.969453
-5.90849 0.483945 -0.703735
-6.09848 0.497271 -0.695129
-6.00849 0.342038 -0.764179
-6.06927 0.542417 -0.839959
-5.97928 0.387184 -0.909009
-6.16928 0.40051 -0.900404
-3.64743 2.72944 0.180305
-3.74077 2.63873 0.0981025
-3.72354 2.48298 0.110576
-3.62151 2.61499 -0.0069465
-3.98168 0.388062 0.141859
-3.76543 0.320245 0.603448
-3.81143 0.566919 0.204361
-3.70331 0.533011 0.435156
-4.03868 0.589149 0.228897
-3.87356 0.354154 0.372653
-3.93055 0.55524 0.459691
-6.17342 0.027823 -0.593282
-6.59748 0.255766 -0.966739
-6.35964 0.547779 -0.240473
-6.21634 0.291783 -0.712318
-6.42837 0.405755 -0.899047
-6.30945 0.551761 -0.535914
-6.38545 0.141794 -0.78001
-6.26653 0.287801 -0.416878
-6.47856 0.401772 -0.603606
-5.98474 0.742767 -0.66955
-5.96122 0.590783 -0.614227
-6.122 0.649255 -0.750452
-5.93201 0.635929 -0.759057
-5.86659 0.345457 -0.129882
-5.96054 -0.099592 -0.035866
-6.02 0.18664 -0.361582
-6.11312 0.446618 -0.185177
-5.91357 0.122933 -0.082874
-6.06698 -0.0358845 -0.314574
-6.16009 0.224094 -0.13817
-1.10421 0.363269 -0.931684
-0.773878 0.737644 -0.67519
-0.520452 0.269543 -0.962988
-0.384634 0.008888 -0.353445
-0.939043 0.550457 -0.803437
-0.812329 0.316406 -0.947336
-0.74442 0.186079 -0.642564
-0.647165 0.503594 -0.819089
-0.579256 0.373266 -0.514317
-0.452543 0.139215 -0.658216
-2.85287 -3.00249 -1.21636
-3.23054 -2.92385 -1.196
-3.06719 -3.3306 -1.25351
-2.88006 -3.17233 -1.03724
-3.06889 -3.13301 -1.02706
-2.98722 -3.33639 -1.05581
-3.0417 -2.96317 -1.20618
-2.96003 -3.16654 -1.23493
-3.14886 -3.12722 -1.22475
-3.38618 -2.05134 -0.098565
-2.37808 -2.56123 -0.134541
-2.49252 -2.47812 0.422472
-2.41131 -1.89586 0.044632
-2.88213 -2.30628 -0.116553
-2.93935 -2.26473 0.161954
-2.89875 -1.9736 -0.0269665
-2.4353 -2.51967 0.143966
-2.39469 -2.22855 -0.0449545
-2.45192 -2.18699 0.233552
-1.85713 -0.413967 0.42138
-1.65927 -0.390905 0.920431
-1.2503 -0.077569 0.384148
-1.80595 -0.084043 0.474172
-1.70702 -0.072512 0.723698
-1.50254 0.084156 0.455557
-1.7582 -0.402436 0.670905
-1.55371 -0.245768 0.402764
-1.45478 -0.234237 0.652289
-2.09043 2.55218 0.167395
-2.0659 2.66009 -0.048555
-2.19298 2.68445 0.126765
-2.18072 2.73841 0.0187895
-2.07816 2.60614 0.05942
-2.21652 2.53485 0.109564
-2.20426 2.58881 0.001589
-4.01665 2.44382 0.136481
-3.97233 2.67361 0.084512
-3.92539 2.49592 0.0761905
-3.99449 2.55872 0.110496
-4.01103 2.46769 0.005291
-3.90323 2.61082 0.050206
-3.98887 2.58259 -0.0206935
-3.92754 1.80484 -0.220103
-4.28096 1.83407 -0.225431
-4.13592 1.88983 -0.461486
-4.146 2.03152 -0.278406
-4.10425 1.81945 -0.222767
-4.03173 1.84734 -0.340795
-4.03677 1.91818 -0.249254
-4.20844 1.86195 -0.343458
-4.21348 1.9328 -0.251918
-4.14096 1.96068 -0.369946
-4.04038 -5 0.949212
-3.62468 -5 1.26221
-3.84559 -4.54287 1.07336
-3.71487 -5 0.728948
-3.83253 -5 1.10571
-3.94299 -4.77144 1.01129
-3.87763 -5 0.83908
-3.73513 -4.77144 1.16779
-3.66977 -5 0.99558
-3.78023 -4.77144 0.901156
-1.37334 0.812082 -0.583544
-0.975724 0.961208 -0.275823
-1.19336 -0.166381 -0.273753
-1.17453 0.886645 -0.429683
-1.07361 0.774863 -0.629367
-1.28335 0.32285 -0.428648
-0.874801 0.849426 -0.475506
-1.08454 0.397413 -0.274788
-0.983618 0.285631 -0.474471
-3.83515 -1.82017 -0.741539
-3.34976 -1.58414 -0.592596
-3.50394 -2.07825 -1.02313
-3.59245 -1.70215 -0.667067
-3.66955 -1.94921 -0.882335
-3.61067 -1.93575 -0.420052
-3.42685 -1.83119 -0.807863
-3.36797 -1.81774 -0.345581
-3.44506 -2.06479 -0.560848
-2.72946 0.769161 0.094533
-2.75119 0.681139 -0.326037
-2.98528 1.02631 -0.281501
-3.08113 0.734324 -0.34324
-2.74032 0.72515 -0.115752
-2.85737 0.897737 -0.093484
-2.90529 0.751742 -0.124353
-2.86823 0.853726 -0.303769
-2.91616 0.707731 -0.334639
-3.03321 0.880319 -0.31237
-2.94023 -2.47675 -0.674772
-3.14499 -2.03044 -0.633684
-3.22209 -2.2775 -0.848951
-3.16321 -2.26404 -0.386669
-3.03914 -4.25341 0.579285
-2.64287 -3.80807 0.20828
-2.47531 -4.18593 0.714333
-2.97264 -3.41482 0.618231
-2.84101 -4.03074 0.393783
-2.75723 -4.21967 0.646809
-3.00589 -3.83412 0.598758
-2.55909 -3.997 0.461307
-2.80776 -3.61144 0.413255
-2.72397 -3.80037 0.666282
-2.39684 -0.595487 -0.803365
-1.98884 -0.54749 -0.836812
-2.24172 -0.466498 -0.098067
-2.21295 -0.01831 -0.514797
-2.19284 -0.571489 -0.820088
-2.31928 -0.530992 -0.450716
-2.3049 -0.306899 -0.659081
-2.11528 -0.506994 -0.46744
-2.1009 -0.2829 -0.675804
-2.22734 -0.242404 -0.306432
-3.36239 -4.55484 -1.31864
-3.11171 -4.25429 -0.873787
-2.86199 -4.55394 -1.36046
-2.79118 -5 -0.96439
-3.23705 -4.40456 -1.09621
-3.11219 -4.55439 -1.33955
-3.07678 -4.77742 -1.14151
-2.98685 -4.40411 -1.11712
-2.95144 -4.62714 -0.919088
-2.82658 -4.77697 -1.16243
-3.88203 2.65205 -0.416886
-3.48121 2.84727 -0.340672
-3.82273 3 -0.474998
-3.72541 2.76868 -0.627028
-3.68162 2.74966 -0.378779
-3.85238 2.82603 -0.445942
-3.80372 2.71037 -0.521957
-3.65197 2.92364 -0.407835
-3.60331 2.80798 -0.48385
-3.77407 2.88434 -0.551013
[...]
POINT_DATA 7451
 
FIELD FieldData 2
velocity 3 7451 double
-0.265676 -0.762005 0.00125769
3.95211e-030 9.17472e-030 -2.23425e-031
1.43502e-030 3.99454e-030 -1.57842e-032
3.36155e-030 9.04114e-030 -2.29624e-031
-0.241542 -0.610633 0.0118222
-0.234655 -0.66461 0.000890493
-0.250181 -0.686879 0.0220037
-6.78916e-018 -1.76816e-017 2.38931e-019
1.88328e-017 4.65096e-017 -1.87852e-018
7.83811e-030 -5.59617e-030 -1.99059e-030
1.12691e-029 5.31146e-030 1.93513e-031
-0.48932 -0.195933 -0.0066022
-0.698885 -0.191413 -0.00360655
-0.757972 -0.322525 -0.00177409
-0.321614 -0.164215 -0.00597506
-0.415615 -0.175354 -0.0115385
-0.523647 -0.256587 -0.00857225
-0.617689 -0.213001 0.00243132
-0.661384 -0.266718 -0.0012407
-0.738146 -0.273468 -0.00646844
1.02178e-028 1.59483e-031 2.25136e-031
-0.860748 0.00373831 -0.00079668
-1.03178 -0.00162245 -0.000713426
6.11116e-029 1.07269e-032 1.38034e-031
-0.621837 -0.00188875 -0.00375763
-0.909589 -0.00349039 -0.00489542
-1.59849e-016 -4.37657e-019 -9.60947e-019
-0.995945 -0.00169686 -0.000849944
-0.566419 0.00198918 -0.00479909
-0.826052 -0.000660454 -0.00279396
3.59165e-029 4.30448e-030 3.14571e-032
2.4149e-029 1.8945e-030 4.58699e-031
-0.694314 -0.0942249 -0.00542973
-0.872387 -0.0598731 -0.00295792
-1.87408e-016 -1.51781e-017 -4.9846e-018
-0.484101 -0.0723398 -0.00884311
-0.600702 -0.0543813 -0.00767205
-0.470919 -0.0431285 -0.0137653
-0.585476 -0.0352101 -0.0131397
-0.796459 -0.0793008 0.000516481
-1.70047e-030 -3.00882e-029 2.32208e-031
0.0198206 0.352337 0.00847567
-1.85982e-030 -3.518e-029 3.59374e-031
-2.01409e-031 -3.57653e-030 -3.9421e-032
0.0086366 0.132629 0.00204112
-1.42358e-017 -1.42919e-016 1.24676e-018
-4.40687e-019 -4.04953e-018 1.60533e-019
0.010338 0.152576 0.00146087
0.004867 0.0765585 0.000887747
-8.51432e-018 -8.51738e-017 3.03802e-018
-0.841884 -0.0193844 -0.00347809
-0.950684 -0.0112992 0.000513553
-0.903799 -0.0157298 -0.0017647
-1.01695 -0.00885924 -0.00281508
-1.10433 -0.019121 -0.00182696
-0.985806 -0.0207624 -0.00404007
-1.07381 -0.00512481 -0.0015072
-1.1366 -0.00784126 -0.00275531
-1.24479 -0.0199226 -0.00147848
-0.612234 -0.199519 0.00363811
-0.556235 -0.122066 -0.00975779
1.99721e-029 6.58836e-030 3.22952e-032
-0.644216 -0.187867 0.000898443
-0.70679 -0.156019 -0.000910916
-0.367714 -0.157413 0.00633511
-0.64007 -0.110096 -0.00438329
-0.377027 -0.136252 -0.0124618
-0.436363 -0.115381 -0.0069985
-0.495035 -0.741145 -0.00193281
-0.42714 -0.53664 0.00264111
-0.624178 -0.505444 0.00296363
-0.323345 -0.463612 0.00350698
-0.465382 -0.647209 -0.00533265
-0.562173 -0.613616 0.00993341
-0.453059 -0.664689 0.0017158
-0.544118 -0.530155 0.010824
-0.404106 -0.575406 -0.00123937
-0.461999 -0.538222 0.00265099
-2.02678e-029 1.59854e-030 -1.09747e-030
0.34056 -0.00107588 0.00368685
-2.13043e-029 4.59737e-031 -4.23055e-031
-5.19716e-030 4.56772e-031 -1.99362e-031
0.229815 -0.0261041 0.0141428
7.35471e-017 -2.46658e-017 1.46388e-018
4.58149e-018 -6.79428e-019 3.62115e-019
0.235807 -0.0210901 0.00121504
0.243156 -0.0193225 0.011625
-8.98514e-017 1.16067e-017 -3.20088e-018
4.12387e-017 2.08714e-017 -1.59281e-018
3.62686e-030 1.8255e-030 -8.31822e-032
-0.609368 -0.271544 0.00379003
3.78073e-030 1.70452e-030 -1.0053e-031
2.04297e-017 1.09754e-017 -9.6748e-019
-0.415466 -0.201056 0.0111105
2.39597e-016 1.18285e-016 -5.63687e-018
-0.410626 -0.214831 0.0154767
2.31e-016 1.29612e-016 -7.97084e-018
-0.428742 -0.20107 0.0107615
-0.0871088 -0.584706 -0.00174617
-0.0462924 -0.656619 -0.016033
-0.0289538 -0.603499 0.00733069
-0.0899792 -0.834251 0.00236692
-0.0633617 -0.684879 -0.000892758
-0.0588841 -0.588054 0.00446699
-0.0866624 -0.729063 0.00305494
-0.0376959 -0.707168 -0.00355231
-0.0708994 -0.837466 0.00229285
-0.0640904 -0.753741 0.00956573
0.00966317 0.258995 0.0112257
-1.49477e-031 -1.33741e-029 -5.473e-031
1.06017e-032 -9.06603e-030 -4.91353e-031
-0.00125386 0.221546 0.0123181
0.000984416 0.0684638 -0.000310188
0.000882176 0.070601 0.0031267
0.00182583 0.269068 0.0119985
9.23398e-031 2.71132e-030 3.18248e-030
-0.00288279 0.057796 0.00379702
-0.00560608 0.0399566 0.00307177
2.94806e-030 1.13169e-029 2.71141e-032
-0.192578 -0.84213 -0.00144336
-0.154558 -0.699848 -0.0103498
-0.187173 -0.770676 0.00466718
-0.204734 -0.665557 -0.00762198
-0.113175 -0.469065 -0.0101463
-0.239708 -0.839461 -0.00218408
-0.196093 -0.859575 -0.00627461
-0.216277 -0.747179 -0.00689264
-8.01954e-032 -1.64134e-030 -1.93067e-032
1.30462e-018 1.28663e-017 2.36774e-018
-1.10142e-018 -1.21875e-017 -3.52516e-018
0.00123298 0.0321067 -0.00244386
1.21608e-029 2.55672e-031 -3.13183e-033
1.59411e-029 3.70954e-031 -2.9767e-032
2.07354e-029 3.59611e-031 1.30816e-031
9.56949e-017 2.53228e-018 -2.92389e-019
-0.63514 -0.01718 0.000546192
-9.22777e-030 -4.75185e-030 -2.33538e-030
-0.614599 -0.0117974 0.0010092
-2.48325e-017 1.98418e-018 -8.2755e-020
-0.629021 -0.0102756 -0.00452998
-1.4362e-028 5.01788e-031 -6.13282e-032
0.425998 0.000235814 0.000372651
-5.4615e-029 1.97014e-031 -1.49699e-031
0.410353 -0.0014244 0.00117633
0.408818 -0.00252606 0.000564022
-7.20519e-017 5.16416e-019 -2.91016e-019
0.381446 -0.00217624 0.00106454
0.400186 -0.00111571 0.00188216
0.480285 -0.000205238 0.000725774
0.402524 -0.00268433 0.00186136
-0.163838 -0.624701 -0.00675402
-0.226484 -0.582747 -0.0225506
-0.265199 -0.909696 -0.00267938
-0.180784 -0.616452 -0.00634406
-0.210521 -0.65999 -0.0188278
-0.222628 -0.833049 -0.00648207
-0.18398 -0.674384 -0.00790998
-0.272987 -0.835529 -0.00635966
-0.214297 -0.612189 -0.0153967
-0.236114 -0.868469 -0.00699681
3.86163e-030 6.20446e-031 -1.3312e-031
-0.737092 -0.136286 0.0115758
8.24877e-030 8.20945e-031 -2.4965e-031
3.32305e-029 2.78864e-030 -3.38969e-031
-0.484158 -0.0732016 0.0214337
-1.41278e-016 -1.69323e-017 7.93966e-018
1.91993e-016 1.84858e-017 -9.77135e-018
-0.471323 -0.065286 0.0173392
-0.48008 -0.0522967 0.0146716
-3.21391e-017 -2.97835e-018 1.75959e-018
-0.421023 -0.239752 -0.0152653
-0.705373 -0.370379 -0.00488482
-0.708953 -0.166446 0.00230531
-0.463361 -0.22787 -0.0113146
-0.581945 -0.314886 -0.00558775
-0.581948 -0.219786 -0.00675737
-0.44603 -0.236907 -0.0128164
-0.737438 -0.26191 -0.005865
-0.615572 -0.303703 -0.00849498
-0.614565 -0.212331 -0.00956773
-0.693024 -0.0296944 -0.00571872
4.22246e-030 1.74245e-031 7.07761e-032
3.36258e-029 9.31092e-031 -2.95784e-032
1.61379e-029 6.18555e-031 5.18758e-032
-0.440097 -0.0166103 -0.00656379
-0.422518 -0.0177928 0.00195055
-0.455564 -0.0198695 -0.00236314
-3.43794e-016 -1.30269e-017 -1.16832e-018
-1.62554e-016 -6.40345e-018 -2.69454e-018
-1.34689e-029 -3.17216e-030 5.8776e-030
-0.128594 -0.80552 0.000734568
-0.14307 -0.798678 -0.00411951
-0.192947 -0.835665 -0.00318962
-0.168038 -0.899495 -0.00441056
-0.682298 -0.340847 0.00338416
-0.354434 -0.223873 0.0208402
-0.557941 -0.431332 -0.00127816
-0.407001 -0.394805 0.0142607
-0.666014 -0.449101 0.00822413
-0.553891 -0.302881 0.022155
-0.523946 -0.410528 0.0166358
-0.83318 -0.0209915 0.00137595
-4.48006e-017 -2.1587e-019 1.80399e-020
-0.836582 -0.0159072 -0.000396019
-0.594149 -0.0240987 0.00219809
-3.17393e-029 -4.12883e-030 6.64066e-030
-0.609082 -0.014336 0.00626918
-0.541178 -0.0173184 0.00419293
-0.959645 -0.0254113 0.0012984
-0.672459 -0.0116595 0.00271613
6.77357e-030 2.61556e-031 1.40848e-031
-0.445477 -0.0206003 -0.00473901
-1.10631e-016 -4.99517e-018 1.50412e-020
-1.5002e-016 -6.22369e-018 -2.3498e-018
-1.12244 -0.062035 -0.00237476
-1.20294 -0.0472492 -0.000178918
-1.0651 -0.0410905 -0.00108148
-1.00575 -0.0341132 -0.00151173
-1.22298 -0.0586251 -0.000244704
-1.12302 -0.0380827 0.000521206
-1.17617 -0.0354792 0.0013678
2.29649e-017 -8.29218e-019 -3.69328e-020
-5.04233e-029 7.47405e-031 2.76423e-031
-1.94951e-029 1.10884e-031 6.01005e-032
0.423765 -0.00341633 -0.000546071
-3.49862e-017 1.09725e-018 -1.17686e-019
1.49506e-029 -5.22184e-030 1.52168e-029
0.315486 -0.0058622 -0.000989512
-3.81022e-017 1.13444e-019 5.58165e-019
0.347666 -0.002488 -0.00263446
0.326229 -0.000595745 -0.00440668
7.7893e-033 -3.06729e-030 -2.33088e-031
-1.48513e-031 -1.4397e-029 -9.12037e-031
2.18158e-032 -3.56271e-031 3.67205e-033
0.00128422 0.0226801 -0.00965426
0.00271974 0.041445 0.000461313
-0.00073619 -0.00659706 0.000796509
-2.05653e-018 1.14132e-030 3.70094e-030
2.60894e-019 -2.10254e-017 -3.3344e-018
5.79644e-019 3.37175e-017 2.17659e-018
0.0215756 0.58245 0.00486994
-0.0180323 0.388982 0.00535038
-0.0149974 0.38412 -0.0133841
-0.0183726 0.463511 -0.00303206
-0.00119014 0.589683 0.00440102
8.01273e-005 0.598368 -0.00381102
-0.00201714 0.63872 0.000749955
-0.0167095 0.405887 -0.00435072
-0.0187195 0.417275 0.000179135
-0.0171458 0.419671 -0.00811352
0.342085 0.0535529 0.0140708
-2.71026e-029 1.04974e-030 2.28665e-031
0.410976 -0.00209129 -0.000969819
0.388008 0.0206282 0.00361699
0.263687 -0.0233377 -0.00313346
0.39527 -0.00324275 0.00362564
0.211739 -0.0141891 -0.002263
0.402452 0.00383597 -0.00344543
0.284426 -0.0152577 -0.00691192
-9.32146e-018 -1.16922e-016 1.99221e-018
3.81961e-031 4.36483e-030 1.08403e-032
-0.0282285 -0.414159 0.00631872
-0.0276682 -0.431895 0.00334926
-1.83941e-017 -2.4172e-016 2.6657e-018
-0.0644269 -0.447168 0.00197078
-0.0527877 -0.449753 -0.0084991
-3.28332e-017 -1.2562e-016 -2.20223e-018
9.06657e-031 5.62118e-030 4.78336e-032
-0.122563 -0.490909 -0.00714387
5.88545e-017 2.8113e-016 6.5774e-018
9.18739e-030 -6.2393e-030 -9.85078e-032
-0.0872448 -0.492063 -0.012842
1.09371e-016 5.42859e-016 1.58215e-017
-0.354529 -0.67391 -0.00735894
4.00334e-030 6.20413e-030 7.10888e-032
2.14295e-030 4.0255e-030 1.03447e-031
1.65592e-030 3.17544e-030 7.24189e-032
-0.332725 -0.559408 -0.00768959
-0.337735 -0.614524 -0.0191618
-0.334828 -0.616009 -0.0235053
-2.04447e-016 -3.46956e-016 -9.60558e-018
-1.15968e-015 -1.98321e-015 -6.50822e-017
-8.79827e-016 -1.58731e-015 -6.9256e-017
-5.14747e-032 -2.35137e-031 5.58885e-032
-6.06161e-032 -1.11151e-030 9.32837e-032
-9.81355e-033 -2.14779e-030 4.54543e-032
0.00300036 0.153921 -0.00315205
2.66784e-018 2.9054e-017 -1.34902e-018
3.97273e-019 3.50621e-018 -3.19495e-019
-0.00277849 0.0038709 0.00232255
-1.81884e-018 -1.75252e-017 2.121e-019
-0.00131254 0.0121987 -0.00107133
-0.00288155 0.00989537 0.00185983
-6.00764e-029 1.64787e-030 6.70104e-031
-5.96977e-029 8.81889e-031 3.76336e-031
0.426285 -0.00520887 -0.000336431
2.87993e-017 -8.90333e-019 -3.30735e-019
-3.17532e-017 1.05007e-018 1.3829e-019
0.416003 -0.0132373 -0.00489967
-7.11463e-017 5.35821e-019 1.07772e-018
0.439604 -0.00922898 -0.00264671
0.390627 -0.00899351 0.00214674
3.46836e-020 2.8091e-019 5.80143e-020
0.013399 0.353475 0.0161723
-1.67703e-030 -4.13593e-029 -1.62735e-030
0.0164185 0.0960082 0.00746803
-5.49497e-018 6.18594e-017 -9.80279e-018
0.013671 0.212651 0.0150624
0.00839196 0.0769958 0.00590515
0.0178538 0.493406 0.0148572
0.0122248 0.280448 0.0143246
0.297677 -0.479296 0.0302491
0.264558 -0.333208 -0.0812711
-0.10311 -0.721482 0.027113
-0.0115642 -0.510539 -0.0276419
0.245786 -0.467 -0.0266213
0.127726 -0.739358 -0.0365446
0.137446 -0.536055 -0.0187628
0.145412 -0.558246 -0.0245311
0.17032 -0.457468 -0.0491314
-0.0159587 -0.647362 -0.00578488
0.000106983 0.382422 0.0212074
0.00679562 0.367573 0.0190148
0.00612675 0.136142 0.00431102
0.0102034 0.508097 0.0164305
0.000511512 0.366754 -0.0126351
-0.00984438 0.427392 -0.00567203
-0.0077308 0.229959 -0.0100237
-0.000570625 0.380415 -0.0170907
-0.00320207 0.40439 -0.0108536
-0.00391283 0.319923 -0.0119499
-0.00108296 0.367041 -0.0139654
-0.00840863 0.325381 -0.011476
-0.00555716 0.417284 -0.0133898
-0.00488129 0.313529 -0.0117248
2.03026e-017 3.14839e-018 1.30186e-018
6.4233e-017 -7.67156e-018 3.82432e-019
0.375003 0.304564 -0.00514059
0.320337 0.060765 -0.010726
1.31102e-029 9.38712e-030 7.44695e-030
0.248751 0.188597 -0.00822529
0.215969 0.0338727 -0.00304642
0.267336 0.0856147 -0.00795145
0.237676 0.003297 -0.00505197
0.363532 0.178951 -0.00726547
5.64533e-019 -1.25393e-017 -7.31079e-019
0.00218527 0.218732 0.0112711
1.30239e-032 -7.79928e-030 -1.36065e-031
-0.00108706 0.166055 0.00388041
0.00181753 0.0264469 0.00117153
-9.29112e-019 -1.91188e-017 1.48526e-018
0.000743506 0.0300298 -0.00117924
0.00120434 0.0373093 0.000486328
0.000803176 0.186684 0.00616941
0.00205783 0.0128023 -0.00336968
2.02036e-030 1.23106e-029 -2.72891e-032
-0.0961212 -0.821962 -0.00197512
1.62317e-030 3.90408e-029 -3.61966e-031
3.04946e-030 1.83944e-029 1.67947e-031
-0.0975088 -0.782441 0.00351512
-1.20428e-016 -1.32387e-015 1.01874e-017
1.1199e-029 -1.12701e-029 8.64251e-030
-0.0562196 -0.79015 0.00443616
-0.0918243 -0.764589 -0.0153313
-9.92461e-017 -1.13533e-015 -9.83455e-018
0.439683 -0.000144276 -8.4665e-005
-2.16129e-029 5.16491e-032 1.4037e-032
-2.24262e-029 6.94689e-032 6.84569e-032
-3.7454e-029 3.50777e-032 1.22563e-031
0.370549 -7.03336e-006 -0.000399321
0.371064 -0.000147317 -0.00163168
0.361107 0.000449416 -0.00163596
1.57005e-029 3.65095e-020 8.83146e-019
1.43828e-029 -9.06912e-020 3.51284e-019
2.97138e-017 2.17048e-020 -1.02726e-031
0.164818 0.444486 -0.020042
0.00779182 0.62547 0.0124217
0.0030048 0.508552 -0.0333375
0.03621 0.538301 0.0131238
0.0954688 0.594778 -0.00683731
0.0715882 0.51113 -0.0288763
0.111334 0.52434 -0.0110742
0.00208145 0.633621 -0.0124251
0.0597559 0.634188 0.0098625
0.0471322 0.61862 -0.0167902
-7.65777e-029 3.04551e-031 -6.6791e-032
-4.66789e-029 2.82199e-031 1.92841e-031
-5.65607e-029 5.38795e-031 -1.37465e-031
0.421573 -0.00419372 -6.60951e-005
2.183e-017 8.17006e-021 -1.52686e-019
4.15355e-019 -1.20488e-021 -7.20494e-022
0.379439 -0.000409365 -0.00205695
1.00968e-018 -5.15008e-021 4.63838e-031
0.351469 -0.00149284 -0.00161399
0.388711 -0.00330432 0.00105707
1.19941e-029 7.72322e-030 -3.55349e-031
-0.495858 -0.340601 0.009491
4.28945e-030 2.80066e-030 -1.93699e-031
-0.42759 -0.293785 0.0201224
-0.399918 -0.212934 0.0192347
1.05372e-015 7.58991e-016 -6.65012e-017
-0.558853 -0.317453 0.00906249
-0.387542 -0.285068 0.0204196
-0.391207 -0.232842 0.0186142
-0.852176 -0.000284654 0.00321879
1.88439e-028 3.18743e-031 1.4218e-031
1.53097e-029 -3.73065e-033 -1.74296e-031
-0.860786 0.00195343 0.000486832
-0.627394 -0.00343209 -0.00319219
-0.590688 -0.00432991 0.0023773
-0.941636 0.00285379 -0.000780953
-2.65199e-029 3.2141e-031 7.70017e-031
-0.531282 -0.0027203 -0.00517435
-0.583701 0.00200829 -0.00209744
-3.80712e-029 8.1933e-031 2.96679e-031
-1.45245e-029 5.84732e-031 2.01824e-031
-2.13642e-029 4.62188e-031 5.16144e-031
-5.52797e-017 2.49443e-018 4.32479e-019
-1.37663e-018 4.99413e-020 4.00013e-020
0.320646 -0.00855273 -0.000331975
-1.92864e-017 8.68116e-019 7.37691e-019
0.302182 -0.0113249 -0.00341798
0.297406 -0.00745987 -0.0121409
-7.92042e-029 1.2929e-030 -2.04846e-031
0.38311 -0.00623792 0.000645341
0.33307 -0.00845424 0.0018643
0.353238 -0.00553386 0.00131262
0.487355 -0.00687809 -0.00137465
0.497825 -0.00530596 -0.000128614
0.430655 -0.00623161 -0.000174057
-1.8953e-029 1.03672e-030 -3.42646e-032
-3.47181e-029 9.26225e-031 4.46244e-032
6.63194e-017 -4.56177e-018 -5.33599e-019
5.71996e-017 -3.67874e-018 -8.18446e-019
0.305224 -0.0173666 -0.000300717
5.14999e-018 -2.57413e-019 -1.13592e-019
0.311243 -0.0101108 -0.00606473
-6.32128e-029 -1.39756e-032 2.59284e-031
0.421351 0.000688695 -0.000593861
-4.26744e-029 -3.85811e-032 2.61255e-032
0.309517 -0.000174806 -0.000224753
-1.13347e-016 -9.0399e-019 5.89211e-019
0.394859 0.00146535 -0.00265139
0.321037 0.00239108 0.000577678
0.449991 -0.000811715 0.000536526
0.337557 0.00143645 -0.00120696
-1.78665e-029 1.38004e-031 -1.80951e-031
-5.06717e-029 1.37822e-031 -4.23263e-031
-5.88567e-029 4.40082e-031 -3.00149e-031
4.08358e-017 -8.12482e-019 1.39476e-018
-4.38734e-017 1.00005e-018 -1.24218e-018
0.319251 -0.00486719 0.0092303
-2.82128e-017 6.16471e-019 -6.07475e-019
0.326459 -0.00461002 0.00640445
0.32554 -0.00586559 0.00380465
-1.43521e-030 -6.0706e-031 8.48636e-032
-0.115117 -0.0217505 -0.0162148
-2.11462e-030 4.14392e-030 1.6144e-030
0.13039 0.114141 -0.0112492
0.000762939 -0.0615225 0.00112122
-4.93439e-018 -1.58686e-017 9.04781e-019
0.0693158 -0.00224799 0.000744876
-0.00710762 -0.109774 -0.0196862
0.00114316 0.0420624 -0.0122543
0.0811304 -0.0763836 -0.0220013
-5.97732e-030 -6.49183e-031 1.23328e-031
-4.98395e-029 -2.13463e-030 4.83009e-031
-6.87992e-030 -7.14854e-030 6.27139e-031
0.199062 -0.00263206 -0.00325528
0.205702 0.0209869 -0.00515162
0.201167 0.051915 -0.00931565
2.902e-030 9.05341e-030 -5.81892e-030
4.36374e-017 8.72905e-018 -5.24844e-018
-5.19953e-017 -1.01698e-017 4.74095e-018
-2.34849e-029 1.17854e-030 -1.8783e-031
-1.6594e-017 -4.6003e-030 -2.50967e-020
6.36692e-017 -3.65935e-018 -7.23638e-019
0.342539 -0.0167003 0.000484701
-0.231074 -0.732345 -0.00767966
4.88397e-030 1.375e-029 2.41967e-031
-0.297192 -0.65986 -0.00514249
1.01447e-029 3.21576e-029 2.31091e-031
-0.220493 -0.677684 -0.0052762
-0.281529 -0.723555 -0.00836224
-0.195022 -0.670426 -0.00511465
-0.265686 -0.712184 -0.0224721
4.22185e-017 1.30536e-016 4.26534e-018
-0.227407 -0.682904 -0.0149037
-0.354353 -0.720216 0.0094945
-0.363579 -0.866097 -0.000557105
-0.247743 -0.617852 0.047724
-0.245123 -0.728499 0.023392
-0.36804 -0.8289 -0.00205873
-0.278049 -0.727237 0.0313333
-0.285531 -0.812022 0.00299769
-0.241103 -0.690264 0.0791292
-0.309171 -0.82376 0.0119311
0.421678 0.00101009 0.00023688
-9.61295e-029 -8.54968e-032 2.05256e-031
-4.11344e-029 -1.60103e-031 -4.47402e-032
0.430165 0.000406408 -0.000715131
0.319591 0.000179623 0.00118828
0.311048 0.00187892 0.00214683
0.445186 0.00161818 4.9413e-005
4.55854e-029 -9.08003e-031 -1.22065e-029
0.409066 0.000138849 -0.000874026
0.370373 0.000183586 0.000364059
-1.8677e-029 9.62036e-032 -5.74038e-032
-4.71629e-029 1.82218e-031 -2.41504e-031
-8.5589e-029 9.41709e-032 -1.89343e-031
1.43712e-029 6.59038e-030 1.18414e-029
0.321997 -0.000506725 0.00196485
7.65403e-017 -1.47841e-020 7.24511e-019
0.340456 -0.00165038 0.00316855
-3.33021e-017 5.11985e-020 -1.94457e-019
0.309674 -0.00128252 0.00173573
-2.65671e-029 8.6012e-033 2.12632e-033
-5.04267e-029 2.61794e-033 -1.10714e-031
0.440739 -0.000355892 0.000147281
-8.55304e-029 1.35105e-031 -2.08445e-031
9.27762e-017 8.34646e-020 2.51213e-019
0.402414 -4.03353e-006 0.000275889
-7.3655e-017 1.47957e-019 -2.00277e-019
0.402511 0.000351973 0.00138057
3.38782e-017 8.24241e-020 1.86255e-019
0.383552 -0.00131007 0.00133568
0.415445 0.00134588 -0.00040275
-9.55863e-029 -1.2047e-031 2.11863e-031
0.497309 -0.000210795 -1.95368e-006
0.35434 0.0011814 -0.00208186
0.433077 0.00117233 0.000211883
0.381212 -2.10697e-005 0.000654835
0.498204 -0.000240384 -0.000717819
0.388505 0.00120519 -0.000452286
1.54912e-029 3.25927e-031 -1.01409e-032
-0.443326 -0.0134838 0.0042552
1.13916e-016 2.57159e-018 -4.4873e-018
-0.573345 -0.0108674 0.00363551
-0.805311 -0.0219349 -2.41826e-005
2.49964e-031 -1.20946e-029 7.40591e-031
1.67317e-031 -2.71879e-029 1.49396e-030
-0.00171189 0.132326 -0.0100439
-0.00158033 0.128869 -0.00919947
-0.00235097 0.0505593 -0.00150801
-9.09671e-020 -2.4634e-018 2.47798e-019
-0.000757872 0.084908 -0.00556474
0.000223282 0.448894 0.00431801
0.00992515 0.250435 0.00679721
0.00337872 0.408834 8.47087e-005
-0.000170986 0.352378 0.00550594
0.00716109 0.375027 0.00703768
0.0012413 0.430784 0.00192987
0.000186264 0.403008 0.00429679
0.00730155 0.348631 0.00380819
0.00535789 0.321914 0.00708684
0.001448 0.399666 0.00347635
0.0067953 0.25947 0.00988883
0.00123761 0.356483 0.00936169
0.000921161 0.283229 0.010303
9.05717e-029 2.1998e-030 2.93705e-031
1.46383e-028 4.2921e-030 -7.61979e-032
2.8662e-029 3.49749e-031 2.65495e-032
-0.700487 -0.0123851 -0.00473115
-0.66645 -0.0177798 -0.00260811
-0.679184 -0.0110168 -0.00298837
-1.61202e-016 -1.11987e-018 1.09392e-019
-2.00801e-016 -3.9418e-018 -1.77109e-018
-1.93244e-016 -5.13965e-018 -1.29968e-018
1.70911e-030 5.62268e-030 -1.36292e-031
-0.261147 -0.640954 0.00215293
8.11183e-030 3.32999e-029 -2.58185e-031
3.29829e-030 1.38972e-029 -2.42475e-031
-0.227051 -0.769446 0.0219149
1.21415e-030 -5.50018e-030 -1.25642e-029
-1.25228e-016 -5.12851e-016 2.06481e-017
-0.187194 -0.684967 0.0131226