# vtk DataFile Version 2.0 
output.vtk, Created by Freefem++, via gregorio
ASCII
DATASET UNSTRUCTURED_GRID
POINTS 7451 double
-3.79965 2.23652 0.040848
-4.13429 2.05574 0.276253
-4.09122 2.24524 0.070091
-4.01836 2.27766 0.330071
-3.96697 2.14613 0.158551
-3.94543 2.24088 0.0554695
-3.90901 2.25709 0.185459
-4.11275 2.15049 0.173172
-4.07633 2.1667 0.303162
-4.05479 2.26145 0.200081
-4.81817 0.732763 -0.840268
-4.76136 0.37264 -0.736193
-5.12328 0.495929 -0.550642
-4.73872 0.559667 -0.434419
-4.78977 0.552702 -0.788231
-4.97072 0.614346 -0.695455
-4.77845 0.646215 -0.637344
-4.94232 0.434285 -0.643417
-4.75004 0.466153 -0.585306
-4.931 0.527798 -0.49253
-7.58244 -0.891248 -0.453516
-8 -0.559587 0.124298
-7.26059 -0.264226 0.250847
-7.58828 -0.999993 0.00381
-7.79122 -0.725418 -0.164609
-7.42152 -0.577737 -0.101334
-7.58536 -0.94562 -0.224853
-7.6303 -0.411906 0.187573
-7.79414 -0.77979 0.064054
-7.42444 -0.632109 0.127328
-5.46564 0.048234 0.998836
-5.51396 -0.351144 0.936321
-5.02851 -0.125769 0.598961
-5.56665 -0.148801 0.504295
-5.4898 -0.151455 0.967578
-5.24708 -0.0387675 0.798898
-5.51614 -0.0502835 0.751565
-5.27124 -0.238457 0.767641
-5.5403 -0.249972 0.720308
-5.29758 -0.137285 0.551628
-4.20269 -2.80441 0.102764
-3.63085 -2.57461 -0.287529
-4.13183 -2.29387 0.255347
-4.14432 -2.47254 -0.273935
-3.91677 -2.68951 -0.0923825
-4.16726 -2.54914 0.179055
-4.1735 -2.63848 -0.0855855
-3.88134 -2.43424 -0.016091
-3.88759 -2.52358 -0.280732
-4.13807 -2.38321 -0.009294
-6.25062 -0.085247 0.575431
-6.51584 -0.423084 -0.15939
-6.46019 0.447486 0.293263
-6.75561 -0.174737 0.413139
-6.38323 -0.254165 0.20802
-6.35541 0.181119 0.434347
-6.88822 -0.343655 0.0457285
-6.86039 0.09163 0.272055
-6.48801 0.012201 0.0669365
-4.88162 0.371746 0.655425
-4.51246 -0.112716 0.623981
-4.65723 0.09269 0.995695
-4.69704 0.129515 0.639703
-4.95507 0.122989 0.627193
-4.76942 0.232218 0.82556
-4.77049 -0.119243 0.611471
-4.58484 -0.010013 0.809838
-4.84287 -0.0165395 0.797328
-3.75099 1.20677 0.090288
-3.64118 0.745776 0.266863
-4.09568 0.790235 0.315934
-3.78936 1.07086 0.69071
-3.69609 0.976272 0.178575
-3.92333 0.998502 0.203111
-3.77017 1.13882 0.390499
-3.86843 0.768006 0.291399
-3.71527 0.908319 0.478787
-3.94252 0.930549 0.503322
-2.18572 0.40145 0.915881
-1.75478 0.245881 0.526965
-1.94554 -0.013967 0.999902
-1.76886 0.356252 0.93439
-1.97025 0.323665 0.721423
-2.06563 0.193741 0.957891
-1.97729 0.378851 0.925135
-1.85016 0.115957 0.763433
-1.76182 0.301067 0.730678
-1.8572 0.171143 0.967146
-5.06116 0.824959 0.710182
-4.88551 0.773989 0.80113
-4.92155 0.772883 0.437198
-5.01596 0.602336 0.857802
-4.97333 0.799474 0.755656
-4.99135 0.798921 0.57369
-5.03856 0.713647 0.783992
-4.90353 0.773436 0.619164
-4.95074 0.688163 0.829466
-4.96876 0.687609 0.6475
-2.34262 2.51752 0.051733
-2.4672 2.85727 -0.311185
-2.29554 2.81673 0.086134
-2.65762 2.74748 0.16058
-2.40491 2.6874 -0.129726
-2.31908 2.66712 0.0689335
-2.50012 2.6325 0.106157
-2.38137 2.837 -0.112526
-2.56241 2.80238 -0.0753025
-2.47658 2.7821 0.123357
-3.50303 -3.76846 -0.636668
-3.49422 -3.29308 -1.15018
-3.31427 -3.71149 -1.25136
-2.90724 -3.34218 -0.858121
-3.49863 -3.53077 -0.893424
-3.40865 -3.73997 -0.944014
-3.20514 -3.55532 -0.747394
-3.40425 -3.50228 -1.20077
-3.20073 -3.31763 -1.00415
-3.11076 -3.52683 -1.05474
-4.0054 2.49156 -0.125899
-3.5956 2.50054 -0.194198
-3.83412 2.54803 0.0159
-3.8005 2.49605 -0.160049
-3.90253 2.36404 -0.0425255
-3.91976 2.5198 -0.0549995
-3.69763 2.36853 -0.076675
-3.71486 2.52428 -0.089149
-3.81689 2.39228 0.028374
-3.73452 -3.68531 -1.05781
-3.52439 -3.6984 -1.15459
-3.61437 -3.4892 -1.104
-3.61877 -3.72688 -0.84724
-6.37864 0.944563 0.328331
-6.25891 0.813305 0.581838
-6.65332 0.772267 0.635298
-6.31878 0.878934 0.455085
-6.41941 0.696025 0.310797
-6.51598 0.858415 0.481815
-6.35955 0.630395 0.43755
-6.45612 0.792786 0.608568
-6.55675 0.609877 0.46428
1.62066 -0.841518 -0.540229
1.89324 0.238579 -0.195511
2.01627 -0.690819 -0.723027
2.25185 -0.211859 0.261412
1.75695 -0.30147 -0.36787
1.81846 -0.766169 -0.631628
1.93625 -0.526689 -0.139408
1.95475 -0.22612 -0.459269
2.07254 0.01336 0.0329505
2.13406 -0.451339 -0.230807
-2.56949 2.06853 0.305158
-2.91403 1.60744 0.564909
-3.02709 2.08175 0.021586
-2.87501 2.07662 0.630995
-2.74176 1.83799 0.435033
-2.79829 2.07514 0.163372
-2.72225 2.07258 0.468077
-2.97056 1.8446 0.293247
-2.89452 1.84203 0.597952
-2.95105 2.07919 0.32629
-5.39985 0.358755 0.933432
-5.34934 0.453264 0.543553
-5.56264 0.558471 0.829524
-5.70805 0.297641 0.954678
-5.37459 0.40601 0.738492
-5.48124 0.458613 0.881478
-5.55395 0.328198 0.944055
-5.45599 0.505868 0.686538
-5.52869 0.375452 0.749116
-5.63535 0.428056 0.892101
-4.17913 0.323834 -0.696515
-4.36183 0.516245 -0.417662
-4.60784 0.019305 -0.528365
-4.46586 0.364911 -0.72315
-4.27048 0.42004 -0.557088
-4.39349 0.17157 -0.61244
-4.3225 0.344372 -0.709832
-4.48483 0.267775 -0.473013
-4.41384 0.440578 -0.570406
-4.53685 0.192108 -0.625757
-5.9377 0.438799 -0.558905
-5.87927 0.529091 -0.848565
-6.25926 0.555743 -0.831354
-6.07929 0.245277 -0.969453
-5.90849 0.483945 -0.703735
-6.09848 0.497271 -0.695129
-6.00849 0.342038 -0.764179
-6.06927 0.542417 -0.839959
-5.97928 0.387184 -0.909009
-6.16928 0.40051 -0.900404
-3.64743 2.72944 0.180305
-3.74077 2.63873 0.0981025
-3.72354 2.48298 0.110576
-3.62151 2.61499 -0.0069465
-3.98168 0.388062 0.141859
-3.76543 0.320245 0.603448
-3.81143 0.566919 0.204361
-3.70331 0.533011 0.435156
-4.03868 0.589149 0.228897
-3.87356 0.354154 0.372653
-3.93055 0.55524 0.459691
-6.17342 0.027823 -0.593282
-6.59748 0.255766 -0.966739
-6.35964 0.547779 -0.240473
-6.21634 0.291783 -0.712318
-6.42837 0.405755 -0.899047
-6.30945 0.551761 -0.535914
-6.38545 0.141794 -0.78001
-6.26653 0.287801 -0.416878
-6.47856 0.401772 -0.603606
-5.98474 0.742767 -0.66955
-5.96122 0.590783 -0.614227
-6.122 0.649255 -0.750452
-5.93201 0.635929 -0.759057
-5.86659 0.345457 -0.129882
-5.96054 -0.099592 -0.035866
-6.02 0.18664 -0.361582
-6.11312 0.446618 -0.185177
-5.91357 0.122933 -0.082874
-6.06698 -0.0358845 -0.314574
-6.16009 0.224094 -0.13817
-1.10421 0.363269 -0.931684
-0.773878 0.737644 -0.67519
-0.520452 0.269543 -0.962988
-0.384634 0.008888 -0.353445
-0.939043 0.550457 -0.803437
-0.812329 0.316406 -0.947336
-0.74442 0.186079 -0.642564
-0.647165 0.503594 -0.819089
-0.579256 0.373266 -0.514317
-0.452543 0.139215 -0.658216
-2.85287 -3.00249 -1.21636
-3.23054 -2.92385 -1.196
-3.06719 -3.3306 -1.25351
-2.88006 -3.17233 -1.03724
-3.06889 -3.13301 -1.02706
-2.98722 -3.33639 -1.05581
-3.0417 -2.96317 -1.20618
-2.96003 -3.16654 -1.23493
-3.14886 -3.12722 -1.22475
-3.38618 -2.05134 -0.098565
-2.37808 -2.56123 -0.134541
-2.49252 -2.47812 0.422472
-2.41131 -1.89586 0.044632
-2.88213 -2.30628 -0.116553
-2.93935 -2.26473 0.161954
-2.89875 -1.9736 -0.0269665
-2.4353 -2.51967 0.143966
-2.39469 -2.22855 -0.0449545
-2.45192 -2.18699 0.233552
-1.85713 -0.413967 0.42138
-1.65927 -0.390905 0.920431
-1.2503 -0.077569 0.384148
-1.80595 -0.084043 0.474172
-1.70702 -0.072512 0.723698
-1.50254 0.084156 0.455557
-1.7582 -0.402436 0.670905
-1.55371 -0.245768 0.402764
-1.45478 -0.234237 0.652289
-2.09043 2.55218 0.167395
-2.0659 2.66009 -0.048555
-2.19298 2.68445 0.126765
-2.18072 2.73841 0.0187895
-2.07816 2.60614 0.05942
-2.21652 2.53485 0.109564
-2.20426 2.58881 0.001589
-4.01665 2.44382 0.136481
-3.97233 2.67361 0.084512
-3.92539 2.49592 0.0761905
-3.99449 2.55872 0.110496
-4.01103 2.46769 0.005291
-3.90323 2.61082 0.050206
-3.98887 2.58259 -0.0206935
-3.92754 1.80484 -0.220103
-4.28096 1.83407 -0.225431
-4.13592 1.88983 -0.461486
-4.146 2.03152 -0.278406
-4.10425 1.81945 -0.222767
-4.03173 1.84734 -0.340795
-4.03677 1.91818 -0.249254
-4.20844 1.86195 -0.343458
-4.21348 1.9328 -0.251918
-4.14096 1.96068 -0.369946
-4.04038 -5 0.949212
-3.62468 -5 1.26221
-3.84559 -4.54287 1.07336
-3.71487 -5 0.728948
-3.83253 -5 1.10571
-3.94299 -4.77144 1.01129
-3.87763 -5 0.83908
-3.73513 -4.77144 1.16779
-3.66977 -5 0.99558
-3.78023 -4.77144 0.901156
-1.37334 0.812082 -0.583544
-0.975724 0.961208 -0.275823
-1.19336 -0.166381 -0.273753
-1.17453 0.886645 -0.429683
-1.07361 0.774863 -0.629367
-1.28335 0.32285 -0.428648
-0.874801 0.849426 -0.475506
-1.08454 0.397413 -0.274788
-0.983618 0.285631 -0.474471
-3.83515 -1.82017 -0.741539
-3.34976 -1.58414 -0.592596
-3.50394 -2.07825 -1.02313
-3.59245 -1.70215 -0.667067
-3.66955 -1.94921 -0.882335
-3.61067 -1.93575 -0.420052
-3.42685 -1.83119 -0.807863
-3.36797 -1.81774 -0.345581
-3.44506 -2.06479 -0.560848
-2.72946 0.769161 0.094533
-2.75119 0.681139 -0.326037
-2.98528 1.02631 -0.281501
-3.08113 0.734324 -0.34324
-2.74032 0.72515 -0.115752
-2.85737 0.897737 -0.093484
-2.90529 0.751742 -0.124353
-2.86823 0.853726 -0.303769
-2.91616 0.707731 -0.334639
-3.03321 0.880319 -0.31237
-2.94023 -2.47675 -0.674772
-3.14499 -2.03044 -0.633684
-3.22209 -2.2775 -0.848951
-3.16321 -2.26404 -0.386669
-3.03914 -4.25341 0.579285
-2.64287 -3.80807 0.20828
-2.47531 -4.18593 0.714333
-2.97264 -3.41482 0.618231
-2.84101 -4.03074 0.393783
-2.75723 -4.21967 0.646809
-3.00589 -3.83412 0.598758
-2.55909 -3.997 0.461307
-2.80776 -3.61144 0.413255
-2.72397 -3.80037 0.666282
-2.39684 -0.595487 -0.803365
-1.98884 -0.54749 -0.836812
-2.24172 -0.466498 -0.098067
-2.21295 -0.01831 -0.514797
-2.19284 -0.571489 -0.820088
-2.31928 -0.530992 -0.450716
-2.3049 -0.306899 -0.659081
-2.11528 -0.506994 -0.46744
-2.1009 -0.2829 -0.675804
-2.22734 -0.242404 -0.306432
-3.36239 -4.55484 -1.31864
-3.11171 -4.25429 -0.873787
-2.86199 -4.55394 -1.36046
-2.79118 -5 -0.96439
-3.23705 -4.40456 -1.09621
-3.11219 -4.55439 -1.33955
-3.07678 -4.77742 -1.14151
-2.98685 -4.40411 -1.11712
-2.95144 -4.62714 -0.919088
-2.82658 -4.77697 -1.16243
-3.88203 2.65205 -0.416886
-3.48121 2.84727 -0.340672
-3.82273 3 -0.474998
-3.72541 2.76868 -0.627028
-3.68162 2.74966 -0.378779
-3.85238 2.82603 -0.445942
-3.80372 2.71037 -0.521957
-3.65197 2.92364 -0.407835
-3.60331 2.80798 -0.48385
-3.77407 2.88434 -0.551013
[...]
POINT_DATA 7451
 
FIELD FieldData 2
velocity 3 7451 double
-0.115056 -0.332742 0.00577612
1.41178e-030 3.15096e-030 -1.19215e-031
4.21877e-031 1.15325e-030 -3.3674e-032
1.17128e-030 3.09234e-030 -1.09517e-031
-0.0779525 -0.189077 0.00708636
-0.0692198 -0.190935 0.00557109
-0.0746867 -0.212819 0.00789031
-1.77252e-018 -4.22429e-018 1.93168e-019
5.23172e-018 1.26984e-017 -6.89431e-019
1.86864e-029 -7.96348e-030 -4.36758e-030
8.29176e-030 2.81308e-030 -1.58716e-031
-0.385156 -0.104979 0.000334685
-0.586071 -0.135824 0.00514467
-0.656248 -0.214796 0.00464547
-0.213911 -0.0743169 0.00586953
-0.288386 -0.0895399 0.00807607
-0.380266 -0.140059 0.00732193
-0.500735 -0.128263 0.00542962
-0.552824 -0.164858 0.00404811
-0.630358 -0.181327 0.00605352
8.85381e-029 -2.41733e-031 2.53719e-032
-0.789685 0.00669749 -0.000571695
-1.02018 -6.41071e-005 -0.000372949
5.12831e-029 -1.96741e-031 4.67079e-032
-0.517164 0.0028808 -0.000104085
-0.780184 -0.000301498 -0.00236328
-1.26393e-016 1.922e-019 -3.08951e-019
-0.934881 0.00108404 -4.97557e-005
-0.450489 0.00584594 -0.000878207
-0.694371 0.00173605 -0.000180696
3.02475e-029 2.91223e-030 5.11152e-032
1.99558e-029 1.17019e-030 2.35782e-031
-0.653924 -0.0860532 -0.0105514
-0.822052 -0.0521912 -0.00398886
-1.39208e-016 -6.20447e-018 -1.45331e-018
-0.397706 -0.0422849 -0.0035103
-0.493862 -0.0296118 -0.00311858
-0.379661 -0.0270521 -0.00656652
-0.474442 -0.0202923 -0.00467742
-0.743192 -0.0713809 -0.00646625
-4.01086e-030 -6.10642e-029 6.74465e-031
0.0272307 0.483202 0.0104917
-4.40201e-030 -7.1833e-029 9.28403e-031
-8.33878e-031 -1.02882e-029 -1.59974e-031
0.0238413 0.298586 0.00129954
-4.99978e-017 -5.48613e-016 1.09638e-017
-4.11376e-018 -4.15169e-017 -1.16385e-019
0.0269761 0.342614 0.00022185
0.0233171 0.281537 0.00489528
-5.89811e-017 -6.15174e-016 2.06963e-019
-0.773743 -0.0146619 -0.00239427
-0.928577 -0.00956915 -0.0011047
-0.841379 -0.0117258 -0.00149566
-0.93807 -0.00282977 -0.000999657
-1.04681 -0.0156468 -0.00257357
-0.915404 -0.0154973 -0.00247961
-1.03176 -0.00435536 -0.00297806
-1.08212 -0.00267469 -0.00071517
-1.17097 -0.0156641 -0.00157354
-0.526153 -0.160295 0.00241785
-0.536105 -0.0817543 -0.0139175
1.72189e-029 4.21169e-030 1.45731e-031
-0.581435 -0.137617 -0.00601584
-0.642859 -0.130318 -0.00321287
-0.290676 -0.0934288 0.00250877
-0.594543 -0.0910518 -0.0141804
-0.32266 -0.0764143 -0.00804623
-0.367025 -0.0708904 -0.00672269
-0.388494 -0.41901 -0.00882182
-0.419437 -0.239829 -0.0185015
-0.548579 -0.299031 -0.00519243
-0.213317 -0.247124 0.00211457
-0.418009 -0.349671 -0.0154627
-0.469057 -0.359189 -0.0073159
-0.351614 -0.363816 -0.0044523
-0.499417 -0.276454 -0.0116162
-0.345572 -0.283593 -0.00715501
-0.380226 -0.289499 -0.000471558
-1.51186e-029 -4.46135e-030 3.94401e-031
0.315557 0.036297 -0.000502052
-1.85328e-029 -4.47431e-030 -4.62967e-031
-3.90934e-030 -1.31168e-031 -1.85759e-032
0.169809 0.0196487 -0.00139895
5.47443e-017 -5.89777e-020 2.55206e-018
2.92668e-018 1.27422e-019 1.31753e-020
0.194896 0.0114362 0.000576851
0.181331 0.00691834 0.0020184
-6.35859e-017 -5.99754e-020 -8.28492e-019
2.36412e-017 1.06508e-017 -3.85899e-019
2.53781e-030 1.10741e-030 -2.61957e-032
-0.474572 -0.190898 0.00397731
2.7149e-030 1.06146e-030 -3.18195e-032
1.18088e-017 5.69591e-018 -2.24568e-019
-0.269486 -0.115683 0.00345657
9.28504e-017 6.31418e-017 -1.8772e-018
-0.269184 -0.125138 0.00426355
1.43746e-016 7.08435e-017 -1.92368e-018
-0.29686 -0.121949 0.00275917
-0.0313728 -0.228568 -0.00667202
-0.0192177 -0.267491 -0.00560555
-0.0118289 -0.225549 -0.002769
-0.0477999 -0.460263 -0.00571862
-0.0272774 -0.271388 -0.00592444
-0.0217379 -0.228098 -0.00489345
-0.0422176 -0.35755 -0.00701292
-0.0174765 -0.273139 -0.00518017
-0.0356459 -0.396526 -0.00590884
-0.0296202 -0.359749 -0.00442776
0.0123224 0.340338 0.0140285
-6.77988e-031 -2.47844e-029 -1.42493e-030
-3.35661e-031 -1.91415e-029 -1.18633e-030
-0.0018943 0.278299 0.017373
0.00696874 0.175841 0.0106195
0.0058911 0.173463 0.0107835
0.00473904 0.345931 0.0176588
2.17042e-029 3.68103e-030 6.3173e-029
0.00191607 0.160846 0.0115182
0.000754211 0.138493 0.0102111
9.19255e-031 3.47432e-030 -6.00198e-032
-0.087914 -0.382442 0.00260929
-0.0465787 -0.22304 0.00255778
-0.0571002 -0.236611 0.00407037
-0.0583346 -0.19083 0.00331386
-0.0270276 -0.116 0.00179298
-0.105377 -0.368713 0.00343484
-0.0735091 -0.328661 0.00337965
-0.0782348 -0.277132 0.00437323
-2.839e-031 -5.57993e-030 -3.1193e-031
-3.9476e-018 -8.1895e-017 -6.21003e-018
3.9171e-018 7.28453e-017 5.37876e-018
0.00848964 0.167225 0.00916112
9.48899e-030 1.60244e-031 1.22089e-032
1.25673e-029 2.02557e-031 2.35651e-032
1.63818e-029 1.77578e-031 5.00633e-032
6.60569e-017 1.44822e-018 1.32736e-019
-0.490156 -0.0119337 -0.000953367
-4.43723e-030 -4.41651e-029 -2.23176e-029
-0.481271 -0.00600354 -0.000901124
-1.72398e-017 7.80116e-019 1.89125e-019
-0.489064 -0.00544556 -0.00120097
-1.34577e-028 3.56707e-031 -5.69393e-032
0.44088 0.000320515 0.000585522
-4.99004e-029 5.66013e-032 -1.16785e-031
0.429604 -0.00181472 0.00116522
0.381178 -0.00138355 0.000302619
-6.1643e-017 8.95206e-020 -2.68057e-019
0.345185 -0.00038888 0.00117409
0.361671 0.000398638 0.000861324
0.48552 -0.00101331 0.00143069
0.364795 -0.0012376 0.00156182
-0.0738838 -0.290851 -0.0133518
-0.105445 -0.274404 -0.017997
-0.156815 -0.515094 -0.0111701
-0.0794772 -0.315515 -0.0103283
-0.0967418 -0.305471 -0.0166599
-0.123104 -0.442859 -0.0149514
-0.0841607 -0.330152 -0.0136899
-0.1601 -0.453871 -0.0165339
-0.0954151 -0.300989 -0.0142855
-0.135529 -0.476263 -0.0132897
2.87544e-030 3.64942e-031 -5.98878e-032
-0.626179 -0.109825 0.00760186
6.21734e-030 4.77596e-031 -1.0291e-031
2.74281e-029 1.73396e-030 -1.31764e-031
-0.355617 -0.0450557 0.00918591
-9.30831e-017 -7.24104e-018 3.20538e-018
1.29362e-016 5.94525e-018 -3.78701e-018
-0.344183 -0.0399394 0.00793167
-0.35884 -0.028303 0.00636491
-2.1121e-017 -7.22844e-019 7.48834e-019
-0.377715 -0.0968144 -0.0126514
-0.635346 -0.214037 -0.00793783
-0.67847 -0.103283 -0.00464888
-0.382686 -0.113157 -0.00486335
-0.527148 -0.157227 -0.0111004
-0.54391 -0.109994 -0.00929953
-0.384366 -0.109129 -0.00856647
-0.689582 -0.15908 -0.00869372
-0.538251 -0.169501 -0.00534587
-0.553737 -0.119821 -0.00519463
-0.587683 -0.0144769 0.000709282
3.09371e-030 4.40869e-032 -1.35034e-033
2.73892e-029 3.89342e-031 -1.14959e-031
1.26418e-029 2.00506e-031 -1.8171e-032
-0.318929 -0.00393875 0.000709
-0.316356 -0.00667451 0.00232237
-0.344924 -0.0048486 0.00159307
-2.27448e-016 -2.24808e-018 1.78306e-018
-1.09527e-016 -4.58493e-019 8.64834e-019
-1.01623e-029 -2.09744e-029 4.70423e-029
-0.0542039 -0.366656 0.00340545
-0.0524918 -0.304089 0.00317122
-0.0806725 -0.347442 0.00397141
-0.0752141 -0.403032 0.00262539
-0.677246 -0.136797 -0.0192574
-0.372803 -0.0424545 -0.00420201
-0.547666 -0.185308 -0.0202745
-0.419019 -0.13333 -0.0126852
-0.631003 -0.235661 -0.0129645
-0.560543 -0.0900629 -0.0122138
-0.495624 -0.185437 -0.00583274
-0.756401 -0.0116805 0.000480398
-3.46116e-017 1.56873e-020 6.70712e-020
-0.758279 -0.00976388 0.00208419
-0.476631 -0.00802872 0.00253911
-2.2825e-029 -2.99702e-029 5.90346e-029
-0.47752 -0.0062711 0.00376452
-0.433214 -0.00822761 0.00156158
-0.876708 -0.0138607 0.0021832
-0.554318 -0.00355523 0.00248974
4.99811e-030 9.97144e-032 5.8841e-033
-0.323422 -0.00694954 0.00122404
-7.33891e-017 -1.35468e-018 1.41743e-018
-9.69896e-017 -1.01575e-018 4.39265e-019
-1.0325 -0.0482587 0.000747813
-1.14901 -0.0384652 -0.00226296
-0.983377 -0.0271753 -0.00014483
-0.910855 -0.0221458 0.00157932
-1.14972 -0.0471948 -0.000440976
-1.05349 -0.0267305 -0.00112162
-1.09765 -0.0266011 0.000535568
1.84817e-017 -1.41375e-019 -2.91047e-019
-4.4186e-029 2.39694e-031 3.95563e-031
-1.64698e-029 2.65664e-032 8.73641e-032
0.433431 -0.00299658 -0.000876428
-2.8375e-017 2.54098e-019 3.88284e-019
1.22802e-029 -3.17154e-029 9.5949e-029
0.269099 -0.00209279 -0.00273236
-2.93602e-017 6.35918e-020 2.98037e-019
0.30059 -0.0026948 -0.00220322
0.272136 0.000425417 -0.00184888
8.63519e-032 -8.3139e-030 -6.78172e-031
-3.20488e-031 -2.60738e-029 -1.73274e-030
-3.87229e-033 -3.06661e-030 -2.34372e-031
-0.00133642 0.138771 0.0103891
0.00221478 0.147244 0.0120027
-1.46356e-005 0.133937 0.00961484
-8.10691e-019 -7.68938e-017 -6.08636e-018
-8.96851e-020 2.96559e-017 2.51297e-018
-1.39768e-018 -6.30748e-017 2.87126e-018
0.0211989 0.741997 0.00562656
-0.025496 0.546189 0.00722572
-0.0244421 0.602994 -0.020918
-0.0268228 0.653038 -0.00535458
-0.00729941 0.78882 0.00895933
-0.00374369 0.838643 -0.00940411
-0.00677336 0.861544 0.000652305
-0.0264207 0.625861 -0.0049773
-0.0263192 0.600539 0.0028629
-0.0269421 0.650918 -0.0147711
0.34199 0.132886 0.0182677
-2.42418e-029 -1.2184e-030 -1.33096e-031
0.417444 0.00978217 -0.00227815
0.373745 0.0814685 0.00312015
0.228438 0.00498056 -5.34098e-005
0.385426 0.0233016 0.000485046
0.186625 0.00422155 0.00657754
0.38187 0.0392586 -0.00267876
0.251275 0.000930916 -0.0027072
-1.93707e-018 -2.53143e-017 -4.00145e-019
1.03768e-031 1.20342e-030 3.19657e-032
-0.00731911 -0.11339 -0.0015933
-0.00785211 -0.112472 -0.00180499
-4.11084e-018 -5.0221e-017 -8.94302e-019
-0.0157296 -0.122816 -0.00355026
-0.0146343 -0.119561 -0.00465882
-7.05539e-018 -2.81937e-017 6.44753e-019
2.64697e-031 1.67088e-030 -2.07645e-032
-0.0297639 -0.126957 0.00238203
1.19488e-017 6.28587e-017 -6.70959e-019
2.00738e-029 -6.56884e-030 -1.3417e-031
-0.0204316 -0.126108 0.000407722
2.14671e-017 1.15986e-016 -8.1873e-019
-0.174968 -0.293026 0.00506465
1.38088e-030 1.9668e-030 -7.44444e-032
6.63274e-031 1.09587e-030 -3.75001e-032
4.96523e-031 8.84785e-031 -3.05318e-032
-0.108453 -0.167241 0.00639553
-0.1002 -0.164602 0.00583075
-0.0971436 -0.169013 0.00562911
-5.02284e-017 -7.6826e-017 4.01848e-018
-3.14715e-016 -4.48796e-016 2.52926e-017
-1.95149e-016 -3.32361e-016 1.58585e-017
-1.01707e-031 -2.76806e-030 9.27368e-032
-1.39656e-031 -7.15222e-030 2.98425e-031
-4.82403e-031 -1.32507e-029 6.14982e-031
0.0081189 0.302848 -0.0076168
-2.68987e-018 -9.99944e-017 4.27485e-018
-4.59479e-019 -1.19155e-017 5.50228e-019
0.0052464 0.170338 -0.00504476
2.39097e-018 2.10863e-017 -1.12979e-018
0.00445044 0.190653 -0.00772279
0.00709446 0.195844 -0.00868066
-5.09139e-029 -5.81655e-031 8.43499e-031
-5.34089e-029 9.16351e-032 4.62582e-031
0.43626 -0.00448722 -0.000642221
2.33116e-017 1.40038e-019 -4.57432e-019
-2.54492e-017 5.70401e-020 4.72194e-019
0.352744 0.000158983 -0.00623774
-5.79972e-017 3.39314e-019 5.33249e-019
0.38543 0.000721436 -0.00428793
0.341047 -0.0034687 -0.00290896
6.39985e-020 1.04134e-018 5.98489e-020
0.00746711 0.456902 0.0232972
-2.23453e-030 -6.79058e-029 -3.06821e-030
0.00877439 0.248563 0.0143622
-9.6611e-018 -7.45553e-017 -1.21866e-017
0.0205727 0.434012 0.0156894
0.00826721 0.214167 0.0154417
0.0149618 0.646323 0.0189595
0.0165892 0.43755 0.0206301
0.0223214 -0.0587031 -0.0222633
0.0194515 -0.00487122 -0.0174348
-0.118274 -0.211849 -0.0194884
-0.1231 -0.0971377 -0.02783
0.0194403 -0.0415496 -0.0217207
-0.0541377 -0.156915 -0.023813
-0.0544645 -0.0986455 -0.0275674
-0.0395065 -0.0925435 -0.0186562
-0.0451936 -0.0492132 -0.0230624
-0.11464 -0.15867 -0.024289
-0.00199616 0.437425 0.0235965
0.00737993 0.478941 0.0241774
0.00763449 0.261565 0.016765
0.00910821 0.658432 0.0207662
0.000647055 0.536307 -0.0165091
-0.014875 0.613105 -0.00634411
-0.0141579 0.399968 -0.0180914
-0.000811075 0.573948 -0.0249178
-0.00728979 0.611673 -0.0120637
-0.00816968 0.503286 -0.0186769
0.000321644 0.555853 -0.0215897
-0.0163946 0.535295 -0.0135193
-0.00912807 0.632644 -0.0145082
-0.0105432 0.507953 -0.0225699
1.74413e-017 5.73219e-017 3.86564e-018
5.32735e-017 1.63044e-018 -2.22897e-019
0.372698 0.441004 -0.0147309
0.279163 0.122479 -0.0191589
-2.62766e-017 -1.9522e-018 4.14801e-029
0.252448 0.312926 -0.0123841
0.189939 0.120982 -0.016598
0.28309 0.177105 -0.0177144
0.217714 0.063185 -0.0124119
0.356394 0.266988 -0.0208089
9.62765e-019 2.389e-017 1.78995e-018
0.00234376 0.268349 0.0125848
2.07159e-031 -1.66857e-029 -7.10862e-031
-0.00185771 0.203599 0.00514962
0.00275389 0.120883 0.0071768
1.69661e-018 3.54196e-017 4.39542e-018
0.000673928 0.109888 0.00437459
5.0678e-005 0.121072 0.00669003
-0.000639045 0.241525 0.00793495
-0.00112185 0.0961347 0.00372054
6.21079e-031 3.51232e-030 -5.40974e-032
-0.0412065 -0.345798 0.00214075
5.92733e-031 1.14008e-029 -1.16306e-031
9.94521e-031 5.19779e-030 -7.44677e-032
-0.0282174 -0.202136 0.0030341
-2.93697e-017 -2.58928e-016 4.68065e-018
2.2308e-029 -4.99768e-030 1.55493e-029
-0.018156 -0.197956 0.00214325
-0.0265049 -0.189032 0.00128774
-2.38803e-017 -2.1251e-016 2.34321e-018
0.466141 -0.000246119 -9.42762e-005
-1.87438e-029 2.13885e-032 -5.14142e-033
-1.94784e-029 1.67699e-032 6.08133e-033
-3.31235e-029 4.60804e-032 7.79653e-033
0.320538 0.000172407 -5.55211e-005
0.321876 -0.00015607 -0.000247714
0.319897 -0.000194435 -6.77609e-006
1.31847e-029 -6.19043e-020 1.1373e-019
1.19395e-029 -1.78081e-020 2.672e-021
2.37037e-017 -1.31913e-020 -1.3877e-030
0.178527 0.656628 -0.029488
-0.0156639 0.824808 -0.00566086
-0.0198773 0.763109 -0.0544075
0.0330826 0.731046 0.00723079
0.0803587 0.841275 -0.025769
0.0575824 0.746085 -0.0464229
0.125306 0.785213 -0.0225733
-0.022161 0.89844 -0.0340079
0.0467513 0.836486 -0.000811731
0.0371221 0.896443 -0.0307803
-6.97938e-029 8.43099e-032 4.03034e-032
-4.13122e-029 8.56664e-032 1.15026e-031
-5.11191e-029 3.53279e-031 6.92664e-034
0.430512 -0.0032963 -0.000249731
1.83067e-017 -3.65039e-022 -1.04433e-019
1.81835e-017 -2.17495e-022 -8.27177e-022
0.343359 4.24919e-005 -0.00139834
8.42857e-019 1.04191e-028 3.42457e-030
0.308072 0.000399309 -0.00121476
0.349111 -0.0019825 0.000163483
7.65412e-030 4.3836e-030 -1.40705e-031
-0.363412 -0.211896 0.00687075
2.61365e-030 1.50682e-030 -6.11146e-032
-0.249875 -0.156736 0.00575733
-0.24393 -0.128298 0.0045478
5.37569e-016 3.55925e-016 -1.76087e-017
-0.419344 -0.204907 0.0050575
-0.221196 -0.1408 0.00715654
-0.2344 -0.125813 0.00447689
-0.782269 0.000323757 0.00544431
1.67171e-028 -1.50461e-031 -2.3564e-031
1.25188e-029 -7.08062e-032 -1.54414e-031
-0.780929 0.00441527 0.00258227
-0.52031 0.00195557 0.00242122
-0.470116 -0.000788065 0.00586378
-0.863165 0.00332493 0.00311511
-2.16708e-029 3.27413e-029 6.09638e-029
-0.442702 0.00364861 0.00152784
-0.473758 0.00566831 0.00316458
-3.36471e-029 3.3679e-031 2.70918e-031
-1.24023e-029 1.77203e-031 1.54732e-031
-1.92863e-029 -6.77357e-031 1.52173e-031
-4.30952e-017 1.60225e-018 3.76742e-019
-1.12239e-018 1.52656e-020 3.92885e-020
0.277405 -0.00259609 -0.00202303
-1.54465e-017 3.22405e-019 5.73144e-019
0.256669 -0.00460918 -0.0019603
0.267688 0.00291223 -0.0108904
-7.29399e-029 9.41729e-031 -8.79587e-032
0.350996 -0.00504395 -0.000377974
0.294543 -0.00655107 0.000780805
0.318166 -0.00547497 0.000485098
0.482412 -0.00557508 -0.000673254
0.497132 -0.00405719 -0.000311089
0.43917 -0.006397 -0.000858364
-1.60541e-029 -8.92333e-032 -2.03471e-033
-3.01565e-029 3.85066e-031 -7.92585e-033
5.06061e-017 -2.04408e-018 -2.39736e-019
4.3973e-017 -1.60904e-018 -3.0332e-019
0.258743 -0.00288757 -0.000631659
3.96246e-018 -1.67685e-019 -4.42866e-020
0.265925 -0.00378231 -0.00268677
-5.59716e-029 1.3846e-031 2.11799e-031
0.429948 0.00155151 -0.000597444
-3.73203e-029 8.37207e-032 9.26649e-032
0.267533 -0.00118638 -0.000686765
-9.07544e-017 4.02914e-021 6.2201e-019
0.341373 -0.00202919 -0.00163191
0.27841 0.000152562 -0.000701702
0.450555 -0.000842629 -0.000690365
0.293741 0.00106959 -0.00203985
-1.5069e-029 1.10043e-031 -1.24135e-031
-4.42333e-029 1.59145e-032 -2.94437e-031
-5.15205e-029 2.94443e-031 -2.47471e-031
3.12426e-017 -4.97572e-019 7.94892e-019
-3.36328e-017 5.78549e-019 -7.5335e-019
0.270636 -0.00350602 0.00544325
-2.19463e-017 3.19506e-019 -3.6748e-019
0.281209 -0.00276912 0.00371462
0.281169 -0.00319844 0.00268799
1.43167e-030 -8.7104e-030 2.68662e-031
-0.173647 0.129621 -0.01606
1.88682e-030 -4.10005e-030 3.63505e-031
0.0677403 0.243918 -0.0172392
-0.0593154 0.0910199 -0.0043652
-1.41933e-017 -5.05693e-018 -1.07662e-020
0.00637094 0.148756 -0.00451335
-0.0662999 0.0471411 -0.00377365
-0.0684103 0.202032 -0.0142528
-0.00552952 0.0851353 -0.00504565
-6.17832e-030 -2.97497e-030 -6.03047e-031
-4.91512e-029 -6.70643e-030 -3.12452e-031
-8.24681e-030 -1.67134e-029 2.65208e-031
0.196539 0.0355081 0.0280447
0.231967 0.0751379 0.0141654
0.241875 0.171236 0.0402029
2.64087e-030 5.12654e-029 -3.19206e-029
5.29562e-017 4.56166e-017 9.60239e-018
-6.67723e-017 -3.96715e-017 -9.97335e-018
-1.95627e-029 -1.99991e-032 -2.69615e-032
-1.25726e-017 3.49944e-019 -6.43786e-020
4.86119e-017 -1.45174e-018 -4.81823e-020
0.285073 -0.00154828 0.00120845
-0.092771 -0.282226 0.00233305
1.56901e-030 3.33758e-030 -4.12534e-032
-0.147387 -0.274999 -0.00336837
3.48239e-030 8.27291e-030 3.36589e-032
-0.0601031 -0.143373 0.00310186
-0.124226 -0.287644 -0.00061562
-0.0603407 -0.151644 0.00204689
-0.0828938 -0.156919 0.00122257
9.99004e-018 1.99661e-017 -3.21871e-019
-0.0723168 -0.143501 -0.000280334
-0.266377 -0.325283 -0.0191069
-0.245061 -0.469704 -0.0149988
-0.113468 -0.190431 -0.0102821
-0.204288 -0.282959 -0.0224757
-0.26396 -0.411614 -0.0172465
-0.185314 -0.278756 -0.0159558
-0.206932 -0.365395 -0.0211988
-0.125691 -0.211418 -0.0127369
-0.198531 -0.368354 -0.0164012
0.428498 0.00129424 0.000107546
-8.78144e-029 -2.16301e-031 3.04699e-031
-3.61971e-029 -1.62555e-031 4.32876e-032
0.439817 0.0017393 -0.000659795
0.283212 0.00206905 -0.000692442
0.268337 0.00218672 0.000602962
0.446596 0.00222952 -0.000857682
3.85317e-029 -8.27512e-030 -1.03781e-028
0.369271 -0.00133649 -0.001402
0.32602 -0.000350768 -0.000266852
-1.59002e-029 1.43263e-032 1.40834e-032
-4.19308e-029 1.22672e-032 -1.47936e-032
-7.80409e-029 1.16893e-032 3.04269e-032
1.21248e-029 4.68548e-029 8.25779e-029
0.272508 -0.000268374 -0.000238808
5.97711e-017 2.36843e-019 -1.44713e-020
0.298012 0.000665213 0.000526695
-2.80756e-017 -8.65264e-020 1.05626e-020
0.272025 6.90556e-005 -0.000278774
-2.36872e-029 3.68613e-032 -2.02377e-032
-4.58412e-029 3.61396e-032 -9.3218e-032
0.462955 -0.000459047 0.000149792
-7.90348e-029 1.08832e-031 -1.83136e-031
7.77076e-017 -1.48735e-019 3.47915e-019
0.355874 -0.000662804 0.000582777
-6.13417e-017 3.07946e-019 -1.42753e-019
0.365216 -0.000503856 0.00168422
2.90214e-017 5.57955e-020 1.87565e-019
0.346646 -0.00193144 0.000588322
0.427268 0.00119263 -0.000602002
-8.75775e-029 2.47981e-033 9.58802e-032
0.489923 0.00023634 -4.04012e-005
0.317163 0.000366376 -0.00048751
0.430703 0.0018664 0.000402406
0.345921 -0.00120914 0.000983825
0.495019 0.00171559 -0.000810264
0.352195 0.000860208 -0.000301116
1.19501e-029 1.33415e-031 -7.26941e-032
-0.327556 -0.0056246 0.00392011
7.5208e-017 3.03539e-018 -9.8785e-019
-0.435577 -0.00510084 0.00390393
-0.704847 -0.0115355 0.0030191
9.91588e-031 -3.83444e-029 2.14966e-030
1.26442e-031 -6.99673e-029 3.84459e-030
-0.00759616 0.429729 -0.0241676
-1.22543e-005 0.4238 -0.0247062
-0.00958721 0.297401 -0.0181069
1.03347e-018 -5.29306e-017 3.5795e-018
-0.0060869 0.342796 -0.0207088
0.00068818 0.591146 0.00564429
0.0131117 0.344486 0.00762943
0.00437158 0.561805 -0.00062108
0.000285766 0.456915 0.00594
0.00993962 0.508308 0.00822163
0.00380383 0.580018 0.00184763
0.000532119 0.531295 0.00686582
0.0088004 0.486165 0.0037764
0.00585938 0.433237 0.00697224
0.00238014 0.537132 0.00352371
0.00807529 0.342881 0.0119645
0.002035 0.474454 0.0130963
0.00109039 0.375543 0.00893865
7.77779e-029 1.41234e-030 4.14454e-031
1.30239e-028 2.72118e-030 6.03462e-031
2.3429e-029 2.85104e-031 7.42415e-032
-0.58937 -0.00761988 -0.00227254
-0.555976 -0.00920965 -0.00431019
-0.556344 -0.00968495 -0.00244808
-1.27666e-016 1.58422e-019 -1.23119e-018
-1.51307e-016 -2.78006e-018 -9.25543e-019
-1.43892e-016 -3.13306e-018 -1.37799e-018
6.13719e-031 2.11358e-030 -4.70907e-032
-0.141381 -0.379593 0.000193305
3.43779e-030 1.53325e-029 -2.1808e-034
1.28626e-030 5.71634e-030 -1.01216e-031
-0.0805661 -0.276274 0.00537164
4.47671e-030 -3.62799e-030 -2.662e-029