# vtk DataFile Version 2.0 
output.vtk, Created by Freefem++, via gregorio
ASCII
DATASET UNSTRUCTURED_GRID
POINTS 7451 double
-3.79965 2.23652 0.040848
-4.13429 2.05574 0.276253
-4.09122 2.24524 0.070091
-4.01836 2.27766 0.330071
-3.96697 2.14613 0.158551
-3.94543 2.24088 0.0554695
-3.90901 2.25709 0.185459
-4.11275 2.15049 0.173172
-4.07633 2.1667 0.303162
-4.05479 2.26145 0.200081
-4.81817 0.732763 -0.840268
-4.76136 0.37264 -0.736193
-5.12328 0.495929 -0.550642
-4.73872 0.559667 -0.434419
-4.78977 0.552702 -0.788231
-4.97072 0.614346 -0.695455
-4.77845 0.646215 -0.637344
-4.94232 0.434285 -0.643417
-4.75004 0.466153 -0.585306
-4.931 0.527798 -0.49253
-7.58244 -0.891248 -0.453516
-8 -0.559587 0.124298
-7.26059 -0.264226 0.250847
-7.58828 -0.999993 0.00381
-7.79122 -0.725418 -0.164609
-7.42152 -0.577737 -0.101334
-7.58536 -0.94562 -0.224853
-7.6303 -0.411906 0.187573
-7.79414 -0.77979 0.064054
-7.42444 -0.632109 0.127328
-5.46564 0.048234 0.998836
-5.51396 -0.351144 0.936321
-5.02851 -0.125769 0.598961
-5.56665 -0.148801 0.504295
-5.4898 -0.151455 0.967578
-5.24708 -0.0387675 0.798898
-5.51614 -0.0502835 0.751565
-5.27124 -0.238457 0.767641
-5.5403 -0.249972 0.720308
-5.29758 -0.137285 0.551628
-4.20269 -2.80441 0.102764
-3.63085 -2.57461 -0.287529
-4.13183 -2.29387 0.255347
-4.14432 -2.47254 -0.273935
-3.91677 -2.68951 -0.0923825
-4.16726 -2.54914 0.179055
-4.1735 -2.63848 -0.0855855
-3.88134 -2.43424 -0.016091
-3.88759 -2.52358 -0.280732
-4.13807 -2.38321 -0.009294
-6.25062 -0.085247 0.575431
-6.51584 -0.423084 -0.15939
-6.46019 0.447486 0.293263
-6.75561 -0.174737 0.413139
-6.38323 -0.254165 0.20802
-6.35541 0.181119 0.434347
-6.88822 -0.343655 0.0457285
-6.86039 0.09163 0.272055
-6.48801 0.012201 0.0669365
-4.88162 0.371746 0.655425
-4.51246 -0.112716 0.623981
-4.65723 0.09269 0.995695
-4.69704 0.129515 0.639703
-4.95507 0.122989 0.627193
-4.76942 0.232218 0.82556
-4.77049 -0.119243 0.611471
-4.58484 -0.010013 0.809838
-4.84287 -0.0165395 0.797328
-3.75099 1.20677 0.090288
-3.64118 0.745776 0.266863
-4.09568 0.790235 0.315934
-3.78936 1.07086 0.69071
-3.69609 0.976272 0.178575
-3.92333 0.998502 0.203111
-3.77017 1.13882 0.390499
-3.86843 0.768006 0.291399
-3.71527 0.908319 0.478787
-3.94252 0.930549 0.503322
-2.18572 0.40145 0.915881
-1.75478 0.245881 0.526965
-1.94554 -0.013967 0.999902
-1.76886 0.356252 0.93439
-1.97025 0.323665 0.721423
-2.06563 0.193741 0.957891
-1.97729 0.378851 0.925135
-1.85016 0.115957 0.763433
-1.76182 0.301067 0.730678
-1.8572 0.171143 0.967146
-5.06116 0.824959 0.710182
-4.88551 0.773989 0.80113
-4.92155 0.772883 0.437198
-5.01596 0.602336 0.857802
-4.97333 0.799474 0.755656
-4.99135 0.798921 0.57369
-5.03856 0.713647 0.783992
-4.90353 0.773436 0.619164
-4.95074 0.688163 0.829466
-4.96876 0.687609 0.6475
-2.34262 2.51752 0.051733
-2.4672 2.85727 -0.311185
-2.29554 2.81673 0.086134
-2.65762 2.74748 0.16058
-2.40491 2.6874 -0.129726
-2.31908 2.66712 0.0689335
-2.50012 2.6325 0.106157
-2.38137 2.837 -0.112526
-2.56241 2.80238 -0.0753025
-2.47658 2.7821 0.123357
-3.50303 -3.76846 -0.636668
-3.49422 -3.29308 -1.15018
-3.31427 -3.71149 -1.25136
-2.90724 -3.34218 -0.858121
-3.49863 -3.53077 -0.893424
-3.40865 -3.73997 -0.944014
-3.20514 -3.55532 -0.747394
-3.40425 -3.50228 -1.20077
-3.20073 -3.31763 -1.00415
-3.11076 -3.52683 -1.05474
-4.0054 2.49156 -0.125899
-3.5956 2.50054 -0.194198
-3.83412 2.54803 0.0159
-3.8005 2.49605 -0.160049
-3.90253 2.36404 -0.0425255
-3.91976 2.5198 -0.0549995
-3.69763 2.36853 -0.076675
-3.71486 2.52428 -0.089149
-3.81689 2.39228 0.028374
-3.73452 -3.68531 -1.05781
-3.52439 -3.6984 -1.15459
-3.61437 -3.4892 -1.104
-3.61877 -3.72688 -0.84724
-6.37864 0.944563 0.328331
-6.25891 0.813305 0.581838
-6.65332 0.772267 0.635298
-6.31878 0.878934 0.455085
-6.41941 0.696025 0.310797
-6.51598 0.858415 0.481815
-6.35955 0.630395 0.43755
-6.45612 0.792786 0.608568
-6.55675 0.609877 0.46428
1.62066 -0.841518 -0.540229
1.89324 0.238579 -0.195511
2.01627 -0.690819 -0.723027
2.25185 -0.211859 0.261412
1.75695 -0.30147 -0.36787
1.81846 -0.766169 -0.631628
1.93625 -0.526689 -0.139408
1.95475 -0.22612 -0.459269
2.07254 0.01336 0.0329505
2.13406 -0.451339 -0.230807
-2.56949 2.06853 0.305158
-2.91403 1.60744 0.564909
-3.02709 2.08175 0.021586
-2.87501 2.07662 0.630995
-2.74176 1.83799 0.435033
-2.79829 2.07514 0.163372
-2.72225 2.07258 0.468077
-2.97056 1.8446 0.293247
-2.89452 1.84203 0.597952
-2.95105 2.07919 0.32629
-5.39985 0.358755 0.933432
-5.34934 0.453264 0.543553
-5.56264 0.558471 0.829524
-5.70805 0.297641 0.954678
-5.37459 0.40601 0.738492
-5.48124 0.458613 0.881478
-5.55395 0.328198 0.944055
-5.45599 0.505868 0.686538
-5.52869 0.375452 0.749116
-5.63535 0.428056 0.892101
-4.17913 0.323834 -0.696515
-4.36183 0.516245 -0.417662
-4.60784 0.019305 -0.528365
-4.46586 0.364911 -0.72315
-4.27048 0.42004 -0.557088
-4.39349 0.17157 -0.61244
-4.3225 0.344372 -0.709832
-4.48483 0.267775 -0.473013
-4.41384 0.440578 -0.570406
-4.53685 0.192108 -0.625757
-5.9377 0.438799 -0.558905
-5.87927 0.529091 -0.848565
-6.25926 0.555743 -0.831354
-6.07929 0.245277 -0.969453
-5.90849 0.483945 -0.703735
-6.09848 0.497271 -0.695129
-6.00849 0.342038 -0.764179
-6.06927 0.542417 -0.839959
-5.97928 0.387184 -0.909009
-6.16928 0.40051 -0.900404
-3.64743 2.72944 0.180305
-3.74077 2.63873 0.0981025
-3.72354 2.48298 0.110576
-3.62151 2.61499 -0.0069465
-3.98168 0.388062 0.141859
-3.76543 0.320245 0.603448
-3.81143 0.566919 0.204361
-3.70331 0.533011 0.435156
-4.03868 0.589149 0.228897
-3.87356 0.354154 0.372653
-3.93055 0.55524 0.459691
-6.17342 0.027823 -0.593282
-6.59748 0.255766 -0.966739
-6.35964 0.547779 -0.240473
-6.21634 0.291783 -0.712318
-6.42837 0.405755 -0.899047
-6.30945 0.551761 -0.535914
-6.38545 0.141794 -0.78001
-6.26653 0.287801 -0.416878
-6.47856 0.401772 -0.603606
-5.98474 0.742767 -0.66955
-5.96122 0.590783 -0.614227
-6.122 0.649255 -0.750452
-5.93201 0.635929 -0.759057
-5.86659 0.345457 -0.129882
-5.96054 -0.099592 -0.035866
-6.02 0.18664 -0.361582
-6.11312 0.446618 -0.185177
-5.91357 0.122933 -0.082874
-6.06698 -0.0358845 -0.314574
-6.16009 0.224094 -0.13817
-1.10421 0.363269 -0.931684
-0.773878 0.737644 -0.67519
-0.520452 0.269543 -0.962988
-0.384634 0.008888 -0.353445
-0.939043 0.550457 -0.803437
-0.812329 0.316406 -0.947336
-0.74442 0.186079 -0.642564
-0.647165 0.503594 -0.819089
-0.579256 0.373266 -0.514317
-0.452543 0.139215 -0.658216
-2.85287 -3.00249 -1.21636
-3.23054 -2.92385 -1.196
-3.06719 -3.3306 -1.25351
-2.88006 -3.17233 -1.03724
-3.06889 -3.13301 -1.02706
-2.98722 -3.33639 -1.05581
-3.0417 -2.96317 -1.20618
-2.96003 -3.16654 -1.23493
-3.14886 -3.12722 -1.22475
-3.38618 -2.05134 -0.098565
-2.37808 -2.56123 -0.134541
-2.49252 -2.47812 0.422472
-2.41131 -1.89586 0.044632
-2.88213 -2.30628 -0.116553
-2.93935 -2.26473 0.161954
-2.89875 -1.9736 -0.0269665
-2.4353 -2.51967 0.143966
-2.39469 -2.22855 -0.0449545
-2.45192 -2.18699 0.233552
-1.85713 -0.413967 0.42138
-1.65927 -0.390905 0.920431
-1.2503 -0.077569 0.384148
-1.80595 -0.084043 0.474172
-1.70702 -0.072512 0.723698
-1.50254 0.084156 0.455557
-1.7582 -0.402436 0.670905
-1.55371 -0.245768 0.402764
-1.45478 -0.234237 0.652289
-2.09043 2.55218 0.167395
-2.0659 2.66009 -0.048555
-2.19298 2.68445 0.126765
-2.18072 2.73841 0.0187895
-2.07816 2.60614 0.05942
-2.21652 2.53485 0.109564
-2.20426 2.58881 0.001589
-4.01665 2.44382 0.136481
-3.97233 2.67361 0.084512
-3.92539 2.49592 0.0761905
-3.99449 2.55872 0.110496
-4.01103 2.46769 0.005291
-3.90323 2.61082 0.050206
-3.98887 2.58259 -0.0206935
-3.92754 1.80484 -0.220103
-4.28096 1.83407 -0.225431
-4.13592 1.88983 -0.461486
-4.146 2.03152 -0.278406
-4.10425 1.81945 -0.222767
-4.03173 1.84734 -0.340795
-4.03677 1.91818 -0.249254
-4.20844 1.86195 -0.343458
-4.21348 1.9328 -0.251918
-4.14096 1.96068 -0.369946
-4.04038 -5 0.949212
-3.62468 -5 1.26221
-3.84559 -4.54287 1.07336
-3.71487 -5 0.728948
-3.83253 -5 1.10571
-3.94299 -4.77144 1.01129
-3.87763 -5 0.83908
-3.73513 -4.77144 1.16779
-3.66977 -5 0.99558
-3.78023 -4.77144 0.901156
-1.37334 0.812082 -0.583544
-0.975724 0.961208 -0.275823
-1.19336 -0.166381 -0.273753
-1.17453 0.886645 -0.429683
-1.07361 0.774863 -0.629367
-1.28335 0.32285 -0.428648
-0.874801 0.849426 -0.475506
-1.08454 0.397413 -0.274788
-0.983618 0.285631 -0.474471
-3.83515 -1.82017 -0.741539
-3.34976 -1.58414 -0.592596
-3.50394 -2.07825 -1.02313
-3.59245 -1.70215 -0.667067
-3.66955 -1.94921 -0.882335
-3.61067 -1.93575 -0.420052
-3.42685 -1.83119 -0.807863
-3.36797 -1.81774 -0.345581
-3.44506 -2.06479 -0.560848
-2.72946 0.769161 0.094533
-2.75119 0.681139 -0.326037
-2.98528 1.02631 -0.281501
-3.08113 0.734324 -0.34324
-2.74032 0.72515 -0.115752
-2.85737 0.897737 -0.093484
-2.90529 0.751742 -0.124353
-2.86823 0.853726 -0.303769
-2.91616 0.707731 -0.334639
-3.03321 0.880319 -0.31237
-2.94023 -2.47675 -0.674772
-3.14499 -2.03044 -0.633684
-3.22209 -2.2775 -0.848951
-3.16321 -2.26404 -0.386669
-3.03914 -4.25341 0.579285
-2.64287 -3.80807 0.20828
-2.47531 -4.18593 0.714333
-2.97264 -3.41482 0.618231
-2.84101 -4.03074 0.393783
-2.75723 -4.21967 0.646809
-3.00589 -3.83412 0.598758
-2.55909 -3.997 0.461307
-2.80776 -3.61144 0.413255
-2.72397 -3.80037 0.666282
-2.39684 -0.595487 -0.803365
-1.98884 -0.54749 -0.836812
-2.24172 -0.466498 -0.098067
-2.21295 -0.01831 -0.514797
-2.19284 -0.571489 -0.820088
-2.31928 -0.530992 -0.450716
-2.3049 -0.306899 -0.659081
-2.11528 -0.506994 -0.46744
-2.1009 -0.2829 -0.675804
-2.22734 -0.242404 -0.306432
-3.36239 -4.55484 -1.31864
-3.11171 -4.25429 -0.873787
-2.86199 -4.55394 -1.36046
-2.79118 -5 -0.96439
-3.23705 -4.40456 -1.09621
-3.11219 -4.55439 -1.33955
-3.07678 -4.77742 -1.14151
-2.98685 -4.40411 -1.11712
-2.95144 -4.62714 -0.919088
-2.82658 -4.77697 -1.16243
-3.88203 2.65205 -0.416886
-3.48121 2.84727 -0.340672
-3.82273 3 -0.474998
-3.72541 2.76868 -0.627028
-3.68162 2.74966 -0.378779
-3.85238 2.82603 -0.445942
-3.80372 2.71037 -0.521957
-3.65197 2.92364 -0.407835
-3.60331 2.80798 -0.48385
-3.77407 2.88434 -0.551013
[...]
POINT_DATA 7451
 
FIELD FieldData 2
velocity 3 7451 double
-0.122501 -0.347459 0.00961035
1.56348e-030 3.5305e-030 -1.96179e-031
4.53273e-031 1.23609e-030 -5.79589e-032
1.30782e-030 3.51468e-030 -1.79312e-031
-0.083439 -0.203746 0.0115194
-0.072636 -0.199817 0.00931915
-0.0803534 -0.2325 0.0123713
-1.87495e-018 -4.54446e-018 3.17025e-019
5.67294e-018 1.41289e-017 -1.11405e-018
1.9072e-029 -8.18597e-030 -4.44683e-030
9.04601e-030 3.01193e-030 -2.06431e-031
-0.41157 -0.109283 0.00110902
-0.62765 -0.142608 0.00756003
-0.707694 -0.230896 0.0062818
-0.227388 -0.0769637 0.00708857
-0.306777 -0.0931958 0.00992102
-0.406046 -0.146941 0.00946621
-0.535881 -0.134334 0.00706217
-0.593668 -0.174605 0.00541813
-0.677243 -0.192703 0.0085611
9.71155e-029 -3.00819e-031 2.8011e-032
-0.849057 0.00733305 -0.000629391
-1.10754 5.11231e-005 -0.000610214
5.60744e-029 -2.2604e-031 5.4111e-032
-0.552961 0.00344635 7.8796e-005
-0.837253 1.3854e-005 -0.00253595
-1.34575e-016 2.50871e-019 -3.15805e-019
-1.00982 0.0012913 -7.87344e-005
-0.480125 0.00635735 -0.000800601
-0.743415 0.00192602 -0.000178964
3.304e-029 3.41632e-030 5.87455e-032
2.17519e-029 1.38877e-030 2.81723e-031
-0.701597 -0.105034 -0.0136982
-0.886813 -0.0624152 -0.00507463
-1.05905e-016 -6.64119e-018 -1.45664e-018
-0.423508 -0.0482478 -0.00390554
-0.527286 -0.0335859 -0.00349522
-0.404243 -0.031364 -0.00756472
-0.506397 -0.0232822 -0.00488849
-0.799863 -0.0860272 -0.00846959
-4.25477e-030 -6.51304e-029 2.01363e-030
0.0261502 0.422937 0.00282878
-4.64448e-030 -7.739e-029 2.53574e-030
-8.15795e-031 -9.68738e-030 5.59055e-033
0.0235753 0.287922 -0.00379323
-6.3071e-017 -5.81131e-016 1.87034e-017
-3.98623e-018 -4.02321e-017 5.80907e-019
0.0267243 0.341691 -0.00583114
0.0220029 0.251593 0.000470987
-5.73317e-017 -6.13993e-016 1.0894e-017
-0.832714 -0.0163706 -0.00239627
-1.00582 -0.00960444 -0.00225537
-0.905418 -0.0130048 -0.000903955
-1.01298 -0.00261548 -0.000990739
-1.13491 -0.0173456 -0.00318706
-0.987321 -0.0172463 -0.00228568
-1.11878 -0.00468316 -0.00387514
-1.17294 -0.00250248 -0.000472441
-1.27331 -0.0170263 -0.00154893
-0.564632 -0.186693 0.00455758
-0.571068 -0.101844 -0.0201261
1.88005e-029 5.14473e-030 1.98327e-031
-0.624818 -0.165464 -0.00819494
-0.690341 -0.154644 -0.00384237
-0.310036 -0.108859 0.00315935
-0.63607 -0.11209 -0.0188084
-0.34255 -0.0929967 -0.0102201
-0.390596 -0.0841197 -0.0082429
-0.43079 -0.454891 -0.0227186
-0.467381 -0.266232 -0.0506021
-0.606912 -0.337255 -0.0150207
-0.23983 -0.301133 -0.000707418
-0.465871 -0.386567 -0.0396084
-0.520473 -0.398921 -0.0203589
-0.394531 -0.41841 -0.0164479
-0.554833 -0.310673 -0.0326817
-0.387447 -0.328356 -0.0247506
-0.423737 -0.335257 -0.00791893
-1.72453e-029 -6.52704e-030 1.17637e-030
0.349013 0.0528067 -0.00665108
-2.07054e-029 -6.23412e-030 -3.74913e-031
-4.37851e-030 -2.33949e-031 2.71849e-032
0.188342 0.0300331 -0.00626746
6.03503e-017 5.86375e-018 2.25529e-018
3.22441e-018 2.2842e-019 -2.98652e-020
0.213427 0.0176671 -0.00143281
0.199196 0.0114616 0.000968785
-6.9311e-017 -7.93301e-019 -8.32928e-019
2.50069e-017 1.16222e-017 -6.9751e-019
2.76963e-030 1.26289e-030 -5.29659e-032
-0.509242 -0.210793 0.00886548
2.95859e-030 1.20947e-030 -5.5214e-032
1.2509e-017 6.26647e-018 -3.8888e-019
-0.286867 -0.126854 0.00666685
9.84219e-017 4.4191e-017 -3.55524e-018
-0.287009 -0.138476 0.00769092
1.52487e-016 7.79973e-017 -3.39132e-018
-0.31656 -0.135155 0.00577157
-0.0331992 -0.236341 -0.0137248
-0.020415 -0.251479 -0.00890327
-0.0125867 -0.235803 -0.00707532
-0.0523481 -0.498627 -0.0154921
-0.0289861 -0.26644 -0.0113033
-0.0231517 -0.237169 -0.0105788
-0.045604 -0.378175 -0.016569
-0.0187823 -0.268946 -0.00957094
-0.0381542 -0.394403 -0.0125795
-0.0321283 -0.382732 -0.0119201
0.01121 0.270901 0.00812549
-6.48214e-031 -2.08909e-029 -1.05559e-030
-3.23942e-031 -1.60197e-029 -9.03783e-031
-0.00172883 0.227788 0.0129261
0.00637227 0.145631 0.00811862
0.0054983 0.142891 0.00813726
0.00468791 0.277185 0.0117391
2.21698e-029 2.20269e-030 6.44056e-029
0.00215962 0.136415 0.00924133
0.00108856 0.117602 0.00832306
9.65719e-031 3.55685e-030 -1.00879e-031
-0.0906797 -0.371054 0.00392853
-0.0485323 -0.229502 0.005024
-0.0580979 -0.233292 0.00631842
-0.0603512 -0.194186 0.00623086
-0.0276402 -0.117238 0.0034325
-0.110481 -0.371805 0.00589063
-0.0761409 -0.329543 0.00571079
-0.0824779 -0.287099 0.00763593
-2.61857e-031 -4.69459e-030 -2.30278e-031
-3.615e-018 -6.97389e-017 -5.18122e-018
3.53952e-018 6.2334e-017 4.53742e-018
0.00763374 0.137768 0.00671364
1.03063e-029 1.76135e-031 1.933e-033
1.36548e-029 2.28264e-031 1.60364e-032
1.78141e-029 1.89609e-031 4.34171e-032
6.96088e-017 1.54014e-018 8.39415e-020
-0.521292 -0.0128336 -0.000495005
-4.9765e-030 -4.51287e-029 -2.27951e-029
-0.51177 -0.00650941 -0.000656821
-1.81884e-017 -1.84457e-019 1.71917e-019
-0.520831 -0.00587394 -0.0010262
-1.50396e-028 3.78919e-031 -7.25806e-032
0.486077 0.000580692 0.000721782
-5.56123e-029 3.76733e-032 -1.30963e-031
0.473561 -0.00219529 0.00130775
0.416691 -0.00126049 0.000283072
-6.68281e-017 3.35328e-020 -3.04874e-019
0.376029 -0.000216535 0.00136202
0.394197 0.000709695 0.000858259
0.536349 -0.00104188 0.00163528
0.397582 -0.00115048 0.0017409
-0.0805394 -0.330561 -0.0293652
-0.119075 -0.345841 -0.0348515
-0.171152 -0.533782 -0.0264938
-0.0913621 -0.416395 -0.0219363
-0.107354 -0.365609 -0.0352807
-0.134994 -0.482712 -0.0342501
-0.0941048 -0.403981 -0.0303146
-0.1789 -0.519902 -0.0385815
-0.108761 -0.388453 -0.0289341
-0.152607 -0.55339 -0.0320266
3.11726e-030 4.11616e-031 -6.81887e-032
-0.669797 -0.123954 0.0099988
6.74128e-030 5.40423e-031 -1.18063e-031
2.99286e-029 1.99842e-030 -1.53027e-031
-0.377369 -0.0499674 0.01026
-9.80649e-017 -7.75056e-018 3.40329e-018
1.36449e-016 6.16081e-018 -3.94429e-018
-0.364937 -0.0442091 0.00887827
-0.380887 -0.0311247 0.00697728
-2.22474e-017 -6.99805e-019 7.7459e-019
-0.404268 -0.101697 -0.0145507
-0.687802 -0.233506 -0.011352
-0.729908 -0.11285 -0.00682683
-0.409559 -0.11803 -0.00508342
-0.56786 -0.169948 -0.0140537
-0.583638 -0.118255 -0.0114832
-0.411519 -0.114148 -0.00958871
-0.744488 -0.175007 -0.0115228
-0.57953 -0.181605 -0.00655513
-0.594526 -0.127451 -0.00633487
-0.628212 -0.0135625 0.00196257
3.35381e-030 3.92584e-032 -7.07495e-033
2.98759e-029 3.63522e-031 -1.54201e-031
1.37553e-029 1.84777e-031 -2.81338e-032
-0.338524 -0.00335273 0.00131407
-0.336062 -0.00629012 0.00284724
-0.366666 -0.00423191 0.00204078
-2.40128e-016 -1.90622e-018 2.11833e-018
-1.73676e-016 -2.37814e-019 1.05408e-018
-1.10494e-029 -2.14131e-029 4.80715e-029
-0.0588308 -0.397341 0.0055044
-0.0557784 -0.32066 0.00568013
-0.0867239 -0.369433 0.00675487
-0.0794193 -0.412822 0.00417776
-0.742799 -0.155251 -0.044554
-0.40977 -0.037332 -0.0216082
-0.605325 -0.206271 -0.0503715
-0.464835 -0.145494 -0.0409642
-0.69605 -0.264781 -0.031819
-0.615847 -0.0976605 -0.0379528
-0.54809 -0.209907 -0.0232493
-0.813106 -0.0103219 0.000553227
-3.67453e-017 4.34597e-020 8.29388e-020
-0.81348 -0.00911136 0.00353787
-0.508267 -0.00733633 0.00302153
-2.50308e-029 -3.05902e-029 6.03388e-029
-0.508324 -0.0058168 0.0045773
-0.461791 -0.00797344 0.00172087
-0.944539 -0.0126426 0.00307859
-0.592088 -0.0028577 0.0030426
5.42014e-030 9.45506e-032 -8.83643e-033
-0.343115 -0.00643774 0.00205001
-7.74484e-017 -1.26155e-018 1.73904e-018
-1.02284e-016 -8.37463e-019 6.63129e-019
-1.11624 -0.0514683 0.00293266
-1.251 -0.0418845 -0.00321723
-1.06278 -0.0266387 0.000721357
-0.981186 -0.0224745 0.00353673
-1.24891 -0.0508024 0.000242662
-1.14151 -0.0263131 -0.00144621
-1.19 -0.0274745 0.00149699
1.98696e-017 -1.52456e-019 -3.14316e-019
-4.90542e-029 4.70576e-031 4.75534e-031
-1.81858e-029 5.43815e-032 9.48921e-032
0.477188 -0.00458429 -0.000864812
-3.05672e-017 2.80904e-019 4.43954e-019
1.35095e-029 -3.24208e-029 9.80049e-029
0.291353 -0.00294046 -0.00292014
-3.14913e-017 1.03302e-019 3.20982e-019
0.32602 -0.00364289 -0.00232132
0.294425 9.81388e-005 -0.00200319
7.76646e-032 -7.29063e-030 -5.69785e-031
-3.22931e-031 -2.23873e-029 -1.34896e-030
-5.78242e-033 -2.70058e-030 -2.01801e-031
-0.00125382 0.119897 0.00925521
0.0019728 0.12687 0.0100869
2.90685e-005 0.115641 0.0081019
-7.03167e-019 -5.90076e-017 -7.10383e-018
-8.00106e-020 2.70103e-017 2.41897e-018
-1.27288e-018 -5.71175e-017 2.60365e-018
0.0215886 0.697958 -0.00766911
-0.0252861 0.505865 -0.00185169
-0.0277607 0.720031 -0.037996
-0.027887 0.651838 -0.0186842
-0.0071995 0.741125 -0.00495787
-0.00373945 0.899379 -0.0270041
-0.00641043 0.844274 -0.0163122
-0.027855 0.66238 -0.0167932
-0.026769 0.580458 -0.00766375
-0.0292093 0.71475 -0.0298949
0.366798 0.162468 0.0245116
-2.65802e-029 -1.75017e-030 -1.91194e-031
0.456632 0.0153644 -0.00235875
0.408966 0.106453 -0.000254743
0.246479 0.00796299 -0.000860081
0.422911 0.0335974 -0.00200154
0.195346 0.00547863 0.00922375
0.412799 0.0530415 -0.00114612
0.268368 0.00123548 -0.00304343
-1.95492e-018 -2.71524e-017 -1.22585e-018
1.10569e-031 1.25553e-030 6.1556e-032
-0.00754876 -0.120092 -0.00452919
-0.00807866 -0.115022 -0.00401046
-4.14517e-018 -5.20532e-017 -2.22133e-018
-0.0165983 -0.129671 -0.00751229
-0.0152772 -0.121738 -0.00787925
-7.43227e-018 -3.00722e-017 1.13657e-018
2.84292e-031 1.8044e-030 -3.8642e-032
-0.0312119 -0.133317 0.00427513
1.24959e-017 6.63802e-017 -1.64238e-018
2.04957e-029 -6.74534e-030 -1.21048e-031
-0.0211926 -0.130909 0.00193517
2.18195e-017 1.18479e-016 -2.53635e-018
-0.184042 -0.295324 0.00816915
1.47986e-030 2.06842e-030 -1.15896e-031
6.97282e-031 1.11865e-030 -5.70495e-032
5.23387e-031 9.09892e-031 -4.79126e-032
-0.113008 -0.170089 0.00962771
-0.103231 -0.16496 0.00844657
-0.100143 -0.169809 0.00875277
-5.14925e-017 -7.76783e-017 5.79921e-018
-3.22757e-016 -5.12221e-016 3.80919e-017
-1.97803e-016 -3.3237e-016 2.32965e-017
-1.34909e-031 -4.11192e-030 1.78816e-031
-2.10378e-031 -1.2124e-029 5.70523e-031
-6.4421e-031 -2.064e-029 1.14595e-030
0.0101819 0.413541 -0.0146304
-3.62581e-018 -1.66935e-016 7.90345e-018
-5.87149e-019 -1.89133e-017 9.96776e-019
0.00658168 0.247846 -0.00952457
9.06781e-019 3.60437e-017 -2.04476e-018
0.00610816 0.308784 -0.0143545
0.00909171 0.299807 -0.015756
-5.66799e-029 -4.82017e-032 1.27376e-030
-5.95361e-029 3.87626e-031 6.4182e-031
0.480902 -0.0116451 0.000107612
2.52936e-017 3.44116e-020 -6.38695e-019
-2.75141e-017 1.56016e-019 6.21414e-019
0.384129 -0.00319001 -0.00823904
-6.25426e-017 5.42895e-019 6.145e-019
0.42058 -0.00186488 -0.0059554
0.370577 -0.00554857 -0.00332175
5.95584e-020 8.98459e-019 4.35672e-020
0.00718929 0.400741 0.0161758
-2.18088e-030 -6.06283e-029 -2.08869e-030
0.00825467 0.21894 0.0104854
-4.3186e-018 -7.14813e-017 -9.4403e-018
0.0196106 0.388904 0.0084799
0.00755581 0.18743 0.0123667
0.0148387 0.580131 0.0077892
0.0157932 0.37972 0.013641
0.0199913 -0.0564083 -0.0515423
0.0191192 -0.0110815 -0.0340586
-0.128947 -0.209253 -0.0356698
-0.135699 -0.10091 -0.0474021
0.0178043 -0.0445977 -0.0475007
-0.0620634 -0.1601 -0.0469302
-0.0629144 -0.103059 -0.0566608
-0.0455808 -0.0933164 -0.0322565
-0.0515261 -0.0538509 -0.0412111
-0.126491 -0.158544 -0.0420948
-0.00171076 0.365512 0.0167823
0.00692509 0.41093 0.0169827
0.00725556 0.226638 0.0136295
0.00908453 0.571036 0.0100512
0.000674784 0.676446 -0.0310411
-0.0159539 0.667695 -0.0176938
-0.017419 0.545361 -0.0330142
-0.000668247 0.7519 -0.0454212
-0.00830168 0.721683 -0.0247413
-0.00978839 0.667508 -0.0347242
0.00033848 0.714988 -0.0389286
-0.0188604 0.652808 -0.0262421
-0.0103552 0.754892 -0.0290461
-0.0129231 0.682779 -0.0404198
1.78273e-017 5.38049e-017 3.74886e-018
5.69503e-017 1.41667e-018 9.97314e-020
0.401898 0.439429 -0.0212365
0.302138 0.107065 -0.026055
1.3894e-029 3.74592e-029 4.23662e-029
0.265823 0.292631 -0.014849
0.201727 0.112 -0.0180142
0.299601 0.167718 -0.0169573
0.231713 0.057218 -0.0124672
0.385157 0.249789 -0.0292676
8.01034e-019 2.10602e-017 1.62929e-018
0.00198989 0.208736 0.00807048
1.92673e-031 -1.35423e-029 -4.92289e-031
-0.00166384 0.155476 0.0024198
0.00230124 0.0996072 0.00568646
1.32669e-018 3.3238e-017 4.40286e-018
0.000574024 0.0891644 0.00317671
-4.4668e-005 0.0994697 0.00530769
-0.000650145 0.185855 0.00446662
-0.00104914 0.0781554 0.00275985
6.32849e-031 3.42237e-030 -7.1217e-032
-0.0414133 -0.321893 0.00192539
5.88688e-031 1.09735e-029 -1.04505e-031
1.01036e-030 5.00405e-030 -8.90849e-032
-0.0278138 -0.190035 0.0036558
-2.8564e-017 -2.42668e-016 5.43471e-018
2.27981e-029 -4.95943e-030 1.58952e-029
-0.017956 -0.183837 0.00207551
-0.0257846 -0.176396 0.00174352
-2.28641e-017 -1.97817e-016 2.83527e-018
0.517286 -0.000286393 -0.000178237
-2.07332e-029 2.60426e-032 -4.57495e-033
-2.15571e-029 1.36689e-032 4.17347e-033
-3.67215e-029 5.05774e-032 6.59322e-033
0.34761 0.000135783 -8.61741e-005
0.34923 -0.000133236 -0.000229571
0.347166 -0.000302993 6.16486e-005
-1.94598e-016 -6.47234e-020 1.00642e-019
1.3171e-029 4.23259e-021 -1.76862e-029
2.53886e-017 -1.69951e-020 -4.57039e-021
0.202006 0.749767 -0.0465148
-0.0112573 0.791347 -0.0293525
-0.0171263 0.931875 -0.0894144
0.0360729 0.70877 -0.00584985
0.0920558 0.896948 -0.0538219
0.0690539 0.88329 -0.0772822
0.136516 0.840043 -0.040189
-0.0176573 0.976716 -0.0671978
0.0524556 0.810348 -0.0200796
0.0434497 0.980994 -0.0582182
-7.76969e-029 1.11815e-031 2.20839e-032
-4.57431e-029 8.7114e-032 8.87445e-032
-5.68052e-029 4.55232e-031 -5.33228e-032
0.473083 -0.00386518 0.000145778
3.90724e-019 1.05182e-019 -6.33971e-022
3.8475e-019 -2.29117e-020 -4.68434e-022
0.373396 4.75335e-005 -0.00126659
9.08294e-019 -2.34402e-022 3.52531e-030
0.333338 0.000525934 -0.0009957
0.379441 -0.00258143 0.000710885
8.40904e-030 4.9018e-030 -2.54958e-031
-0.394609 -0.239984 0.0118121
2.86344e-030 1.70012e-030 -1.07043e-031
-0.268722 -0.172449 0.0101392
-0.260755 -0.13964 0.00810683
5.74167e-016 3.87262e-016 -2.91706e-017
-0.452107 -0.22868 0.0102591
-0.237648 -0.156 0.0114689
-0.250393 -0.137795 0.00815462
-0.841282 0.000945515 0.00603216
1.83909e-028 -2.39547e-031 -2.70085e-031
1.36661e-029 -8.92975e-032 -1.70875e-031
-0.840217 0.00521058 0.00298581
-0.55674 0.00278904 0.00282031
-0.501388 -0.000364325 0.00637645
-0.93017 0.00411388 0.00362748
-2.36136e-029 3.34825e-029 6.23e-029
-0.473509 0.00440307 0.00197854
-0.505983 0.00647633 0.00357545
-3.69864e-029 3.24203e-031 1.91946e-031
-1.35446e-029 1.91036e-031 1.55059e-031
-2.09235e-029 -9.23294e-031 -1.75315e-033
-4.55447e-017 1.97568e-018 3.19697e-019
-1.17841e-018 1.70011e-020 3.50283e-020
0.297527 -0.00209527 -0.0013443
-1.61624e-017 3.98251e-019 5.57991e-019
0.274634 -0.00513809 -0.00224867
0.283946 0.00468241 -0.0103327
-8.11701e-029 1.34281e-030 -3.0782e-031
0.381613 -0.00640756 0.000711176
0.319304 -0.00982443 0.00215261
0.345921 -0.00698528 0.00083151
0.531065 -0.008392 9.87946e-005
0.548837 -0.00564369 -9.40032e-005
0.483345 -0.0104946 -0.000479907
-1.77359e-029 -2.16016e-031 2.94115e-032
-3.33005e-029 4.12461e-031 -2.07886e-032
5.36551e-017 -2.54039e-018 -2.99902e-019
4.69301e-017 -2.60621e-018 -4.44989e-019
0.27885 -0.00257532 -0.000748217
4.20366e-018 -2.06758e-019 -4.87204e-020
0.286659 -0.00355724 -0.00278991
-6.21239e-029 2.63516e-031 2.53221e-031
0.472733 0.00157644 -0.000704177
-4.13233e-029 1.46914e-031 1.07079e-031
0.289342 -0.00154981 -0.000827015
-9.7463e-017 1.63789e-019 6.9981e-019
0.370365 -0.00307278 -0.00187626
0.300994 -0.000111636 -0.000781844
0.495586 -0.0015991 -0.00080097
0.31801 0.000600644 -0.0021846
-1.66133e-029 1.25603e-031 -1.33863e-031
-4.89439e-029 7.41306e-033 -3.19725e-031
-5.69968e-029 3.10351e-031 -2.75624e-031
3.33577e-017 -5.27637e-019 8.29998e-019
-3.58889e-017 6.07842e-019 -7.9586e-019
0.292477 -0.00386155 0.00574002
-2.34441e-017 3.25636e-019 -3.8531e-019
0.304165 -0.00292821 0.00386782
0.303914 -0.00332672 0.00288843
1.41007e-030 -8.19191e-030 4.50645e-031
-0.180525 0.117361 -0.0216702
1.94945e-030 -3.75441e-030 5.76254e-031
0.0749544 0.217009 -0.0291325
-0.0600585 0.0856624 -0.0056588
-1.36464e-017 6.97083e-018 1.6695e-020
0.00874775 0.137701 -0.00698006
-0.068173 0.0434884 -0.00511733
-0.0687478 0.180632 -0.0236231
-0.00398016 0.0771879 -0.00787461
-6.6962e-030 -3.71531e-030 -8.37726e-031
-5.39466e-029 -7.42086e-030 -1.12413e-030
-9.17437e-030 -2.00001e-029 2.6455e-031
0.205084 0.0453525 0.0359451
0.243383 0.0881714 0.0218657
0.256422 0.198826 0.0515364
2.83334e-030 5.24964e-029 -3.24552e-029
5.61344e-017 5.33331e-017 1.29603e-017
-6.97618e-017 -4.53671e-017 -1.34817e-017
-2.17519e-029 -1.95302e-031 6.24242e-032
1.48495e-029 3.92058e-019 -6.92018e-029
6.22198e-017 -1.62354e-018 -3.86704e-020
0.309364 -0.000191861 0.00133826
-0.0937532 -0.265465 0.0027824
1.62141e-030 3.28915e-030 -5.37501e-032
-0.152683 -0.26413 -0.00457003
3.60775e-030 8.11026e-030 4.85533e-032
-0.0601362 -0.137955 0.00368663
-0.127254 -0.273505 -0.000712548
-0.060559 -0.146017 0.0022894
-0.0839936 -0.152384 0.00168473
9.93576e-018 1.96064e-017 -4.73372e-019
-0.0734222 -0.139666 -0.000107103
-0.288054 -0.325234 -0.0317597
-0.26874 -0.485978 -0.0343477
-0.118697 -0.184206 -0.0160253
-0.221579 -0.281718 -0.0389419
-0.286904 -0.416326 -0.0338853
-0.198005 -0.272991 -0.0257936
-0.22481 -0.368034 -0.041923
-0.13371 -0.206845 -0.0227665
-0.212664 -0.363852 -0.0306833
0.471007 0.00161009 8.49264e-005
-9.77974e-029 -2.67794e-031 3.52939e-031
-4.00973e-029 -1.88578e-031 5.37929e-032
0.484163 0.00210409 -0.000744727
0.307275 0.00245501 -0.000898533
0.290382 0.00241508 0.000645871
0.491135 0.00258673 -0.00106873
4.27317e-029 -8.43924e-030 -1.06028e-028
0.401955 -0.00145021 -0.00159021
0.353496 -0.000375691 -0.000337052
-1.75633e-029 2.58627e-032 1.64091e-032
-4.65449e-029 1.38364e-032 -6.96686e-033
-8.68983e-029 4.5616e-032 5.03333e-032
1.33542e-029 4.78674e-029 8.43518e-029
0.294892 -0.000465011 -0.000206612
6.40496e-017 3.18596e-019 -3.32247e-020
0.323226 0.000660387 0.000445977
-3.03227e-017 -1.00712e-019 2.94851e-020
0.294985 -7.97817e-005 -0.000408016
-2.63125e-029 4.76604e-032 -3.12237e-032
-5.10294e-029 5.54228e-032 -1.09719e-031
0.513016 -0.000582166 0.000266551
-8.81692e-029 1.19253e-031 -2.13514e-031
8.39175e-017 -2.09199e-019 4.16219e-019
0.38725 -0.000885999 0.000775428
-6.61969e-017 3.72786e-019 -1.68531e-019
0.397997 -0.000723182 0.00198032
3.14395e-017 5.7027e-020 2.08023e-019
0.377584 -0.0022677 0.000652
0.470092 0.00115115 -0.000622218
-9.75909e-029 4.11052e-032 9.99957e-032
0.539777 8.75869e-005 -7.11418e-005
0.344598 0.000250386 -0.000346844
0.473067 0.00199223 0.000424823
0.376694 -0.00155316 0.00111277
0.546418 0.00196969 -0.000950237
0.38334 0.000804198 -0.000344481
1.29797e-029 1.24507e-031 -1.02114e-031
-0.347614 -0.00530028 0.00475592
8.41452e-017 9.13925e-019 -5.25184e-018
-0.46285 -0.00486936 0.0048763
-0.755256 -0.0106786 0.00460033
1.26404e-030 -5.97065e-029 3.88962e-030
1.50751e-031 -1.10186e-028 7.0003e-030
-0.00985561 0.680803 -0.042866
6.55013e-005 0.688929 -0.043606
-0.0122544 0.476106 -0.0317756
1.39881e-018 -9.27781e-017 6.23194e-018
-0.00808867 0.568192 -0.0365613
0.000635192 0.522238 -0.00347286
0.01202 0.277026 0.00195543
0.00418177 0.532825 -0.00928691
0.000120801 0.353424 -0.000629715
0.00914202 0.425876 -2.47535e-005
0.0033536 0.529805 -0.00655526
0.000324308 0.440934 -0.000976254
0.00840372 0.419337 -0.00323567
0.00515052 0.341836 0.000609148
0.00187309 0.457287 -0.00380811
0.00722164 0.266161 0.00592352
0.00182406 0.375091 0.00487205
0.000919894 0.283995 0.00291313
8.5187e-029 1.58332e-030 6.81143e-031
1.43214e-028 2.88423e-030 9.98806e-031
2.55802e-029 2.97951e-031 1.24273e-031
-0.631428 -0.00810087 -0.00369604
-0.595363 -0.00888652 -0.00593502
-0.595059 -0.0100271 -0.00360359
-1.36004e-016 3.45669e-019 -1.90482e-018
-1.60666e-016 -2.95892e-018 -1.37045e-018
-1.52658e-016 -3.13337e-018 -1.8676e-018
7.39702e-031 2.79996e-030 -6.16051e-032
-0.164332 -0.490999 -0.00415691
4.13528e-030 2.06142e-029 1.34747e-031
1.55586e-030 7.62923e-030 -1.3743e-031
-0.0950357 -0.357628 0.00657621
4.49888e-030 -4.22802e-030 -2.71838e-029
-4.29282e-017 -2.10385e-016 7.41568e-018
-0.0850336 -0.36024 0.00100619