# vtk DataFile Version 2.0 
output.vtk, Created by Freefem++, via gregorio
ASCII
DATASET UNSTRUCTURED_GRID
POINTS 7451 double
-3.79965 2.23652 0.040848
-4.13429 2.05574 0.276253
-4.09122 2.24524 0.070091
-4.01836 2.27766 0.330071
-3.96697 2.14613 0.158551
-3.94543 2.24088 0.0554695
-3.90901 2.25709 0.185459
-4.11275 2.15049 0.173172
-4.07633 2.1667 0.303162
-4.05479 2.26145 0.200081
-4.81817 0.732763 -0.840268
-4.76136 0.37264 -0.736193
-5.12328 0.495929 -0.550642
-4.73872 0.559667 -0.434419
-4.78977 0.552702 -0.788231
-4.97072 0.614346 -0.695455
-4.77845 0.646215 -0.637344
-4.94232 0.434285 -0.643417
-4.75004 0.466153 -0.585306
-4.931 0.527798 -0.49253
-7.58244 -0.891248 -0.453516
-8 -0.559587 0.124298
-7.26059 -0.264226 0.250847
-7.58828 -0.999993 0.00381
-7.79122 -0.725418 -0.164609
-7.42152 -0.577737 -0.101334
-7.58536 -0.94562 -0.224853
-7.6303 -0.411906 0.187573
-7.79414 -0.77979 0.064054
-7.42444 -0.632109 0.127328
-5.46564 0.048234 0.998836
-5.51396 -0.351144 0.936321
-5.02851 -0.125769 0.598961
-5.56665 -0.148801 0.504295
-5.4898 -0.151455 0.967578
-5.24708 -0.0387675 0.798898
-5.51614 -0.0502835 0.751565
-5.27124 -0.238457 0.767641
-5.5403 -0.249972 0.720308
-5.29758 -0.137285 0.551628
-4.20269 -2.80441 0.102764
-3.63085 -2.57461 -0.287529
-4.13183 -2.29387 0.255347
-4.14432 -2.47254 -0.273935
-3.91677 -2.68951 -0.0923825
-4.16726 -2.54914 0.179055
-4.1735 -2.63848 -0.0855855
-3.88134 -2.43424 -0.016091
-3.88759 -2.52358 -0.280732
-4.13807 -2.38321 -0.009294
-6.25062 -0.085247 0.575431
-6.51584 -0.423084 -0.15939
-6.46019 0.447486 0.293263
-6.75561 -0.174737 0.413139
-6.38323 -0.254165 0.20802
-6.35541 0.181119 0.434347
-6.88822 -0.343655 0.0457285
-6.86039 0.09163 0.272055
-6.48801 0.012201 0.0669365
-4.88162 0.371746 0.655425
-4.51246 -0.112716 0.623981
-4.65723 0.09269 0.995695
-4.69704 0.129515 0.639703
-4.95507 0.122989 0.627193
-4.76942 0.232218 0.82556
-4.77049 -0.119243 0.611471
-4.58484 -0.010013 0.809838
-4.84287 -0.0165395 0.797328
-3.75099 1.20677 0.090288
-3.64118 0.745776 0.266863
-4.09568 0.790235 0.315934
-3.78936 1.07086 0.69071
-3.69609 0.976272 0.178575
-3.92333 0.998502 0.203111
-3.77017 1.13882 0.390499
-3.86843 0.768006 0.291399
-3.71527 0.908319 0.478787
-3.94252 0.930549 0.503322
-2.18572 0.40145 0.915881
-1.75478 0.245881 0.526965
-1.94554 -0.013967 0.999902
-1.76886 0.356252 0.93439
-1.97025 0.323665 0.721423
-2.06563 0.193741 0.957891
-1.97729 0.378851 0.925135
-1.85016 0.115957 0.763433
-1.76182 0.301067 0.730678
-1.8572 0.171143 0.967146
-5.06116 0.824959 0.710182
-4.88551 0.773989 0.80113
-4.92155 0.772883 0.437198
-5.01596 0.602336 0.857802
-4.97333 0.799474 0.755656
-4.99135 0.798921 0.57369
-5.03856 0.713647 0.783992
-4.90353 0.773436 0.619164
-4.95074 0.688163 0.829466
-4.96876 0.687609 0.6475
-2.34262 2.51752 0.051733
-2.4672 2.85727 -0.311185
-2.29554 2.81673 0.086134
-2.65762 2.74748 0.16058
-2.40491 2.6874 -0.129726
-2.31908 2.66712 0.0689335
-2.50012 2.6325 0.106157
-2.38137 2.837 -0.112526
-2.56241 2.80238 -0.0753025
-2.47658 2.7821 0.123357
-3.50303 -3.76846 -0.636668
-3.49422 -3.29308 -1.15018
-3.31427 -3.71149 -1.25136
-2.90724 -3.34218 -0.858121
-3.49863 -3.53077 -0.893424
-3.40865 -3.73997 -0.944014
-3.20514 -3.55532 -0.747394
-3.40425 -3.50228 -1.20077
-3.20073 -3.31763 -1.00415
-3.11076 -3.52683 -1.05474
-4.0054 2.49156 -0.125899
-3.5956 2.50054 -0.194198
-3.83412 2.54803 0.0159
-3.8005 2.49605 -0.160049
-3.90253 2.36404 -0.0425255
-3.91976 2.5198 -0.0549995
-3.69763 2.36853 -0.076675
-3.71486 2.52428 -0.089149
-3.81689 2.39228 0.028374
-3.73452 -3.68531 -1.05781
-3.52439 -3.6984 -1.15459
-3.61437 -3.4892 -1.104
-3.61877 -3.72688 -0.84724
-6.37864 0.944563 0.328331
-6.25891 0.813305 0.581838
-6.65332 0.772267 0.635298
-6.31878 0.878934 0.455085
-6.41941 0.696025 0.310797
-6.51598 0.858415 0.481815
-6.35955 0.630395 0.43755
-6.45612 0.792786 0.608568
-6.55675 0.609877 0.46428
1.62066 -0.841518 -0.540229
1.89324 0.238579 -0.195511
2.01627 -0.690819 -0.723027
2.25185 -0.211859 0.261412
1.75695 -0.30147 -0.36787
1.81846 -0.766169 -0.631628
1.93625 -0.526689 -0.139408
1.95475 -0.22612 -0.459269
2.07254 0.01336 0.0329505
2.13406 -0.451339 -0.230807
-2.56949 2.06853 0.305158
-2.91403 1.60744 0.564909
-3.02709 2.08175 0.021586
-2.87501 2.07662 0.630995
-2.74176 1.83799 0.435033
-2.79829 2.07514 0.163372
-2.72225 2.07258 0.468077
-2.97056 1.8446 0.293247
-2.89452 1.84203 0.597952
-2.95105 2.07919 0.32629
-5.39985 0.358755 0.933432
-5.34934 0.453264 0.543553
-5.56264 0.558471 0.829524
-5.70805 0.297641 0.954678
-5.37459 0.40601 0.738492
-5.48124 0.458613 0.881478
-5.55395 0.328198 0.944055
-5.45599 0.505868 0.686538
-5.52869 0.375452 0.749116
-5.63535 0.428056 0.892101
-4.17913 0.323834 -0.696515
-4.36183 0.516245 -0.417662
-4.60784 0.019305 -0.528365
-4.46586 0.364911 -0.72315
-4.27048 0.42004 -0.557088
-4.39349 0.17157 -0.61244
-4.3225 0.344372 -0.709832
-4.48483 0.267775 -0.473013
-4.41384 0.440578 -0.570406
-4.53685 0.192108 -0.625757
-5.9377 0.438799 -0.558905
-5.87927 0.529091 -0.848565
-6.25926 0.555743 -0.831354
-6.07929 0.245277 -0.969453
-5.90849 0.483945 -0.703735
-6.09848 0.497271 -0.695129
-6.00849 0.342038 -0.764179
-6.06927 0.542417 -0.839959
-5.97928 0.387184 -0.909009
-6.16928 0.40051 -0.900404
-3.64743 2.72944 0.180305
-3.74077 2.63873 0.0981025
-3.72354 2.48298 0.110576
-3.62151 2.61499 -0.0069465
-3.98168 0.388062 0.141859
-3.76543 0.320245 0.603448
-3.81143 0.566919 0.204361
-3.70331 0.533011 0.435156
-4.03868 0.589149 0.228897
-3.87356 0.354154 0.372653
-3.93055 0.55524 0.459691
-6.17342 0.027823 -0.593282
-6.59748 0.255766 -0.966739
-6.35964 0.547779 -0.240473
-6.21634 0.291783 -0.712318
-6.42837 0.405755 -0.899047
-6.30945 0.551761 -0.535914
-6.38545 0.141794 -0.78001
-6.26653 0.287801 -0.416878
-6.47856 0.401772 -0.603606
-5.98474 0.742767 -0.66955
-5.96122 0.590783 -0.614227
-6.122 0.649255 -0.750452
-5.93201 0.635929 -0.759057
-5.86659 0.345457 -0.129882
-5.96054 -0.099592 -0.035866
-6.02 0.18664 -0.361582
-6.11312 0.446618 -0.185177
-5.91357 0.122933 -0.082874
-6.06698 -0.0358845 -0.314574
-6.16009 0.224094 -0.13817
-1.10421 0.363269 -0.931684
-0.773878 0.737644 -0.67519
-0.520452 0.269543 -0.962988
-0.384634 0.008888 -0.353445
-0.939043 0.550457 -0.803437
-0.812329 0.316406 -0.947336
-0.74442 0.186079 -0.642564
-0.647165 0.503594 -0.819089
-0.579256 0.373266 -0.514317
-0.452543 0.139215 -0.658216
-2.85287 -3.00249 -1.21636
-3.23054 -2.92385 -1.196
-3.06719 -3.3306 -1.25351
-2.88006 -3.17233 -1.03724
-3.06889 -3.13301 -1.02706
-2.98722 -3.33639 -1.05581
-3.0417 -2.96317 -1.20618
-2.96003 -3.16654 -1.23493
-3.14886 -3.12722 -1.22475
-3.38618 -2.05134 -0.098565
-2.37808 -2.56123 -0.134541
-2.49252 -2.47812 0.422472
-2.41131 -1.89586 0.044632
-2.88213 -2.30628 -0.116553
-2.93935 -2.26473 0.161954
-2.89875 -1.9736 -0.0269665
-2.4353 -2.51967 0.143966
-2.39469 -2.22855 -0.0449545
-2.45192 -2.18699 0.233552
-1.85713 -0.413967 0.42138
-1.65927 -0.390905 0.920431
-1.2503 -0.077569 0.384148
-1.80595 -0.084043 0.474172
-1.70702 -0.072512 0.723698
-1.50254 0.084156 0.455557
-1.7582 -0.402436 0.670905
-1.55371 -0.245768 0.402764
-1.45478 -0.234237 0.652289
-2.09043 2.55218 0.167395
-2.0659 2.66009 -0.048555
-2.19298 2.68445 0.126765
-2.18072 2.73841 0.0187895
-2.07816 2.60614 0.05942
-2.21652 2.53485 0.109564
-2.20426 2.58881 0.001589
-4.01665 2.44382 0.136481
-3.97233 2.67361 0.084512
-3.92539 2.49592 0.0761905
-3.99449 2.55872 0.110496
-4.01103 2.46769 0.005291
-3.90323 2.61082 0.050206
-3.98887 2.58259 -0.0206935
-3.92754 1.80484 -0.220103
-4.28096 1.83407 -0.225431
-4.13592 1.88983 -0.461486
-4.146 2.03152 -0.278406
-4.10425 1.81945 -0.222767
-4.03173 1.84734 -0.340795
-4.03677 1.91818 -0.249254
-4.20844 1.86195 -0.343458
-4.21348 1.9328 -0.251918
-4.14096 1.96068 -0.369946
-4.04038 -5 0.949212
-3.62468 -5 1.26221
-3.84559 -4.54287 1.07336
-3.71487 -5 0.728948
-3.83253 -5 1.10571
-3.94299 -4.77144 1.01129
-3.87763 -5 0.83908
-3.73513 -4.77144 1.16779
-3.66977 -5 0.99558
-3.78023 -4.77144 0.901156
-1.37334 0.812082 -0.583544
-0.975724 0.961208 -0.275823
-1.19336 -0.166381 -0.273753
-1.17453 0.886645 -0.429683
-1.07361 0.774863 -0.629367
-1.28335 0.32285 -0.428648
-0.874801 0.849426 -0.475506
-1.08454 0.397413 -0.274788
-0.983618 0.285631 -0.474471
-3.83515 -1.82017 -0.741539
-3.34976 -1.58414 -0.592596
-3.50394 -2.07825 -1.02313
-3.59245 -1.70215 -0.667067
-3.66955 -1.94921 -0.882335
-3.61067 -1.93575 -0.420052
-3.42685 -1.83119 -0.807863
-3.36797 -1.81774 -0.345581
-3.44506 -2.06479 -0.560848
-2.72946 0.769161 0.094533
-2.75119 0.681139 -0.326037
-2.98528 1.02631 -0.281501
-3.08113 0.734324 -0.34324
-2.74032 0.72515 -0.115752
-2.85737 0.897737 -0.093484
-2.90529 0.751742 -0.124353
-2.86823 0.853726 -0.303769
-2.91616 0.707731 -0.334639
-3.03321 0.880319 -0.31237
-2.94023 -2.47675 -0.674772
-3.14499 -2.03044 -0.633684
-3.22209 -2.2775 -0.848951
-3.16321 -2.26404 -0.386669
-3.03914 -4.25341 0.579285
-2.64287 -3.80807 0.20828
-2.47531 -4.18593 0.714333
-2.97264 -3.41482 0.618231
-2.84101 -4.03074 0.393783
-2.75723 -4.21967 0.646809
-3.00589 -3.83412 0.598758
-2.55909 -3.997 0.461307
-2.80776 -3.61144 0.413255
-2.72397 -3.80037 0.666282
-2.39684 -0.595487 -0.803365
-1.98884 -0.54749 -0.836812
-2.24172 -0.466498 -0.098067
-2.21295 -0.01831 -0.514797
-2.19284 -0.571489 -0.820088
-2.31928 -0.530992 -0.450716
-2.3049 -0.306899 -0.659081
-2.11528 -0.506994 -0.46744
-2.1009 -0.2829 -0.675804
-2.22734 -0.242404 -0.306432
-3.36239 -4.55484 -1.31864
-3.11171 -4.25429 -0.873787
-2.86199 -4.55394 -1.36046
-2.79118 -5 -0.96439
-3.23705 -4.40456 -1.09621
-3.11219 -4.55439 -1.33955
-3.07678 -4.77742 -1.14151
-2.98685 -4.40411 -1.11712
-2.95144 -4.62714 -0.919088
-2.82658 -4.77697 -1.16243
-3.88203 2.65205 -0.416886
-3.48121 2.84727 -0.340672
-3.82273 3 -0.474998
-3.72541 2.76868 -0.627028
-3.68162 2.74966 -0.378779
-3.85238 2.82603 -0.445942
-3.80372 2.71037 -0.521957
-3.65197 2.92364 -0.407835
-3.60331 2.80798 -0.48385
-3.77407 2.88434 -0.551013
[...]
POINT_DATA 7451
 
FIELD FieldData 2
velocity 3 7451 double
-1.31763 -3.79519 0.0299926
1.63111e-029 3.78459e-029 -1.55022e-030
5.37039e-030 1.48326e-029 -2.12503e-031
1.3994e-029 3.78691e-029 -1.47478e-030
-0.950197 -2.34153 0.0755002
-0.873952 -2.40916 0.0350094
-0.936722 -2.68216 0.0936925
-2.30419e-017 -5.64136e-017 1.88856e-018
6.74862e-017 1.65621e-016 -9.49969e-018
5.53408e-030 -1.1635e-029 -1.77603e-030
2.64344e-029 1.59628e-029 1.22994e-030
-1.10965 -0.688168 -0.0483192
-1.67109 -0.601485 -0.0399664
-1.91221 -1.19224 -0.064
-0.697015 -0.451956 -0.0297596
-0.922164 -0.440921 -0.0337807
-1.25615 -0.81293 -0.0709379
-1.44312 -0.675414 -0.0375151
-1.59086 -0.991575 -0.0557444
-1.81392 -0.887067 -0.0559139
2.3176e-028 -9.15662e-032 3.91183e-031
-2.03425 0.0145325 -0.00207438
-2.39981 -0.00301771 0.00162518
1.38067e-028 -3.28263e-031 2.30569e-031
-1.40275 0.00037426 -0.00608149
-2.051 -0.00606317 -0.00980144
-3.55787e-016 -1.73189e-019 -1.82033e-018
-2.31014 0.000232926 -0.000928747
-1.25568 0.0135203 -0.00658101
-1.8638 0.00323277 -0.00327631
8.1528e-029 1.24579e-029 1.64864e-031
5.4437e-029 5.47548e-030 1.48483e-030
-1.60579 -0.361547 -0.0640276
-2.04616 -0.173126 -0.0197697
-4.10278e-016 -3.76431e-017 -9.60512e-018
-1.0913 -0.211944 -0.0204008
-1.35771 -0.13523 -0.01843
-1.04654 -0.134894 -0.0409449
-1.30657 -0.0947189 -0.0301943
-1.85403 -0.255112 -0.0343853
9.10971e-030 1.18491e-028 -1.18047e-030
-0.058592 -0.863895 -0.0339809
9.25742e-030 1.38783e-028 -1.20855e-030
2.35308e-030 2.73218e-029 9.20991e-031
-0.0640379 -0.683757 -0.00551155
1.22895e-016 1.33736e-015 -2.93265e-017
1.24242e-017 1.20933e-016 1.79986e-018
-0.0646304 -0.740755 -0.00678446
-0.0665631 -0.734263 -0.0261547
1.6386e-016 1.67735e-015 2.56469e-017
-1.98212 -0.0465677 -0.0114078
-2.24694 -0.0232771 0.00224366
-2.1306 -0.0357492 -0.00548374
-2.33092 -0.0185917 -0.00731013
-2.51202 -0.0438655 -0.00985041
-2.28314 -0.0474867 -0.00936678
-2.46273 -0.00695707 -0.0010612
-2.58135 -0.01711 -0.00725479
-2.71364 -0.0426514 -0.0051198
-1.47963 -0.768935 0.0658676
-1.09351 -0.689169 -0.144349
4.39514e-029 2.92115e-029 8.38644e-031
-1.42991 -0.804961 -0.0288379
-1.63774 -0.591383 -0.00487079
-0.818785 -0.617087 0.0370531
-1.3894 -0.504813 -0.0981496
-0.791369 -0.650528 -0.0702497
-0.965427 -0.449137 -0.044838
-1.96537 -3.94293 -0.0176766
-0.992443 -3.43734 -0.0808185
-1.83339 -2.6362 0.0431466
-1.33208 -3.18547 0.0452472
-1.53873 -3.73244 -0.0722288
-1.93098 -3.29888 0.0271204
-1.8518 -3.69858 0.0153053
-1.49512 -3.05106 -0.016628
-1.37117 -3.50929 -0.0993191
-1.62489 -2.99952 0.0603402
-5.32973e-029 1.81981e-029 -5.05196e-030
0.853031 -0.115542 0.034003
-4.91985e-029 1.58236e-029 4.58962e-031
-1.12694e-029 1.62574e-030 -6.76474e-031
0.541931 -0.130547 0.0484944
2.02869e-016 -8.99167e-017 1.17814e-017
9.53361e-018 -2.17838e-018 8.82359e-019
0.53195 -0.120459 0.022869
0.514454 -0.0711463 0.0268031
-1.80437e-016 3.89564e-017 -9.50976e-018
8.2598e-017 4.71599e-017 -9.19976e-018
8.37051e-030 5.52671e-030 -7.94054e-031
-1.57486 -0.864626 0.0985996
8.55036e-030 5.06695e-030 -7.16903e-031
4.19418e-017 2.71948e-017 -5.32514e-018
-0.920733 -0.517061 0.0833492
3.10399e-016 2.88473e-016 -5.34543e-017
-0.937137 -0.60932 0.101859
4.865e-016 3.61205e-016 -5.57317e-017
-0.966746 -0.564835 0.0863189
-0.387485 -2.7095 -0.0288397
-0.234217 -3.4949 -0.0907071
-0.144978 -2.72039 0.00499188
-0.501418 -4.50486 -0.0152355
-0.318565 -3.25013 -0.0222583
-0.267253 -2.71645 -0.0134803
-0.47354 -3.80431 -0.0234223
-0.203397 -3.28938 -0.0317416
-0.389089 -4.22139 -0.024204
-0.337106 -3.88341 0.0027011
-0.0338454 -0.81924 -0.0480471
2.6894e-030 9.23578e-029 6.76916e-030
1.58542e-030 8.61133e-029 6.54101e-030
0.00937197 -1.02827 -0.0762326
-0.029007 -0.786396 -0.0644443
-0.0271455 -0.824611 -0.0644136
-0.0211867 -0.969361 -0.0658847
-4.83392e-031 -5.18885e-029 -1.24496e-030
-0.0173658 -0.856896 -0.0666176
-0.0132492 -0.808467 -0.0650411
1.1879e-029 4.57499e-029 2.34598e-032
-1.02277 -4.51112 -0.0210777
-0.604102 -2.83513 -0.00909279
-0.753368 -3.12912 0.00653962
-0.766253 -2.49705 -0.00685512
-0.378477 -1.58283 -0.0138339
-1.21315 -4.24748 -0.00761195
-0.901917 -3.99447 -0.00971486
-0.955692 -3.35154 0.00914408
1.09344e-030 2.5001e-029 1.84296e-030
2.07585e-017 5.53238e-016 4.75328e-017
-1.89949e-017 -4.69233e-016 -4.17116e-017
-0.0329998 -0.736941 -0.0585812
2.664e-029 5.2132e-031 2.4035e-032
3.51294e-029 7.13616e-031 -2.19262e-032
4.57254e-029 6.8126e-031 2.10408e-031
1.98082e-016 4.99887e-018 4.59442e-020
-1.37055 -0.0374306 -0.00179373
-2.01582e-029 -5.10092e-030 -2.43334e-030
-1.34623 -0.0221213 -0.0013312
-5.14346e-017 3.0629e-018 3.74644e-019
-1.35894 -0.0176859 -0.0040934
-3.16377e-028 1.07005e-030 -3.6865e-032
0.976095 -0.00186546 0.000474997
-1.19675e-028 4.29923e-031 -2.50078e-031
0.952446 -0.00227597 0.0018456
0.900478 -0.00659231 0.00145319
-1.54268e-016 9.98976e-019 -3.92389e-019
0.835372 -0.00382034 0.00126408
0.872295 -0.00240515 0.00332954
1.05958 -0.00314286 0.00235228
0.880086 -0.00534241 0.00281078
-0.867274 -3.28074 -0.138481
-1.19873 -3.343 -0.35037
-1.44129 -4.75697 -0.0416931
-0.957688 -3.82957 -0.176179
-1.11561 -3.53963 -0.244032
-1.24961 -4.38296 -0.112091
-0.974882 -3.73126 -0.188508
-1.5412 -4.58902 -0.174327
-1.11616 -3.61627 -0.262849
-1.35409 -4.66255 -0.13867
8.3495e-030 1.57326e-030 -3.66351e-031
-1.73357 -0.401505 0.0568832
1.78924e-029 1.89197e-030 -5.99081e-031
7.47719e-029 6.86065e-030 -8.47435e-031
-1.03308 -0.188411 0.0535265
-2.82429e-016 -3.51384e-017 1.72839e-017
3.87589e-016 3.53571e-017 -1.96867e-017
-1.00705 -0.158322 0.0467204
-1.03627 -0.122043 0.0359967
-6.40016e-017 -4.62755e-018 3.70295e-018
-0.842355 -1.58686 -0.0563292
-1.71334 -1.73065 -0.0539485
-1.45266 -0.82258 0.0351874
-1.04638 -1.09738 -0.0605389
-1.31846 -1.67913 -0.0389464
-1.17458 -1.22099 -0.00210164
-0.969677 -1.33283 -0.0581156
-1.58787 -1.24578 -0.0167869
-1.45356 -1.46541 -0.057902
-1.32297 -1.04553 -0.0208473
-1.5962 -0.0616861 -0.00879192
8.96453e-030 2.39631e-031 5.77467e-032
7.50746e-029 1.59958e-030 -1.77193e-031
3.54955e-029 9.7023e-031 1.56531e-032
-0.921134 -0.0218381 -0.0037885
-0.906078 -0.0283518 0.00428078
-0.983446 -0.0264412 0.000978118
-6.85528e-016 -1.28875e-017 3.25622e-018
-3.27529e-016 -5.16129e-018 7.04136e-019
-2.94391e-029 -3.53015e-030 6.18222e-030
-0.630189 -4.15218 0.0332146
-0.640318 -3.65158 0.0122399
-0.94446 -4.03141 0.020437
-0.86176 -4.55292 -0.00213935
-1.22777 -2.19258 -0.0445603
-0.37921 -2.18571 0.105806
-1.10928 -2.78312 -0.0554684
-0.691652 -2.84141 -0.0230729
-1.56155 -2.4813 -0.0113666
-0.882039 -2.24653 -0.011921
-1.18791 -2.53196 -0.00804085
-1.95513 -0.0506806 0.00203629
-9.95732e-017 5.73223e-020 1.60759e-019
-1.97933 -0.0320572 0.00175439
-1.32152 -0.0366121 0.00564341
-7.09223e-029 -4.74583e-030 7.05777e-030
-1.33976 -0.0235472 0.0096747
-1.20598 -0.0306062 0.00553397
-2.21367 -0.0512905 0.00357718
-1.51276 -0.0168586 0.00639259
1.44396e-029 4.46765e-031 1.55819e-031
-0.935924 -0.0300756 -0.00304803
-2.2146e-016 -5.85191e-018 2.49965e-018
-2.94707e-016 -5.86391e-018 -6.79209e-019
-2.52815 -0.151536 -0.00590085
-2.63114 -0.118892 -0.0050398
-2.41428 -0.0948415 -0.00627818
-2.29569 -0.069225 -0.00210121
-2.68733 -0.147206 -0.00305482
-2.52816 -0.0918193 -0.00271487
-2.61051 -0.0813459 -0.000137762
5.02774e-017 -1.25846e-018 -2.44205e-019
-1.1035e-028 1.3337e-030 4.17222e-031
-4.22368e-029 -1.35385e-031 1.28166e-031
0.971428 -0.00181077 0.000451214
-7.58508e-017 1.65202e-018 2.90716e-019
3.21367e-029 -4.91081e-030 1.47069e-029
0.685164 -0.00489267 -0.00401029
-7.92958e-017 -1.57718e-019 5.43962e-019
0.754457 -0.00506349 -0.00150414
0.692769 0.00607054 -0.00486613
-3.78915e-031 4.15298e-029 3.6006e-030
1.22373e-030 1.00331e-028 7.72008e-030
5.06367e-032 1.87627e-029 1.56886e-030
0.00705923 -0.820555 -0.0788526
-0.00555262 -0.838609 -0.0717072
-0.000803308 -0.815143 -0.0679791
1.41192e-018 6.01416e-016 4.99349e-017
3.48596e-019 -2.49037e-016 -2.41397e-017
4.90359e-018 5.06091e-016 -2.25531e-017
-0.00866137 -0.835108 -0.013053
0.0570388 -0.852781 -0.0168812
0.0545699 -0.84227 0.034098
0.0734578 -0.855612 0.00152515
0.0321409 -0.828699 -0.0111987
0.027848 -0.84659 0.0100469
0.0472053 -0.844169 -0.00436284
0.0540423 -0.883103 0.00678961
0.0608595 -0.871604 -0.010408
0.0633996 -0.902321 0.0218382
0.642889 -0.170992 -0.0727518
-5.97641e-029 7.32183e-030 1.89588e-030
0.940968 -0.0508097 -0.00709007
0.881313 -0.165158 -0.00923123
0.58308 -0.0925339 -0.00316551
0.92572 -0.0869208 0.00375983
0.454425 -0.0666657 -0.0466262
0.855927 -0.0820195 -0.0253256
0.632614 -0.0504873 -0.0180157
-2.8123e-017 -3.5679e-016 1.30658e-018
1.38624e-030 1.59471e-029 1.47155e-031
-0.0995721 -1.48352 0.00419012
-0.104872 -1.5018 -0.000765329
-5.85999e-017 -7.21698e-016 4.12491e-019
-0.213762 -1.6028 -0.0149829
-0.194795 -1.5871 -0.0337973
-9.76527e-017 -3.89466e-016 2.05093e-018
3.46165e-030 2.15994e-029 -6.93097e-032
-0.401933 -1.69155 0.00478811
1.68972e-016 8.71162e-016 5.30682e-018
6.62834e-030 -1.5179e-029 -1.96745e-032
-0.28061 -1.68769 -0.0212844
3.17112e-016 1.64576e-015 2.71533e-017
-1.76634 -3.39103 -0.0725679
1.45154e-029 2.30166e-029 4.08293e-031
7.91489e-030 1.50226e-029 6.05248e-031
6.04031e-030 1.16836e-029 3.02977e-031
-1.21401 -2.03797 -0.0497301
-1.19926 -2.22239 -0.0956479
-1.17529 -2.21887 -0.0693738
-6.34279e-016 -1.06322e-015 -4.52232e-017
-4.01311e-015 -6.05831e-015 -2.20677e-016
-2.64922e-015 -4.87744e-015 -2.28684e-016
3.06498e-031 8.15265e-030 -3.39343e-031
4.52671e-031 2.19061e-029 -1.21126e-030
1.51967e-030 3.75098e-029 -2.29563e-030
-0.0223168 -0.540167 0.0238189
1.19351e-017 4.06669e-016 -2.04582e-017
1.85134e-018 4.63025e-017 -2.58132e-018
-0.019154 -0.499552 0.0222437
-9.97574e-018 -8.59154e-017 5.097e-018
-0.0170177 -0.62282 0.0325417
-0.0253719 -0.605062 0.03619
-1.34021e-028 8.00839e-030 8.30201e-031
-1.30515e-028 1.91995e-030 6.71817e-031
0.966207 -0.0374317 0.00445756
6.12558e-017 -1.55088e-018 -6.26436e-019
-6.79604e-017 2.28993e-018 4.67202e-019
0.901397 -0.0406895 -0.00585377
-1.51511e-016 4.38196e-019 6.75475e-019
0.948223 -0.012624 -0.0058922
0.851926 -0.0208265 -0.000649726
-1.41117e-019 -3.94775e-018 -1.49209e-019
0.0297715 -1.21985 -0.0792179
3.96407e-030 1.89815e-028 1.09851e-029
0.00156395 -0.895041 -0.0509111
2.32716e-017 5.66131e-016 3.27528e-017
-0.0358425 -1.15089 -0.0388715
-0.00771173 -0.907342 -0.0612472
0.00600208 -1.1542 -0.0417609
-0.0324716 -1.1689 -0.0577063
1.7535 -3.05387 0.158294
1.49873 -2.13241 -0.399891
-0.327579 -4.51361 0.235688
0.62151 -3.76605 -0.158325
1.65756 -2.88962 -0.129045
0.874256 -4.29792 -0.0946244
1.29841 -3.8068 -0.121327
0.866643 -3.30549 -0.1193
1.25815 -3.19735 -0.297145
0.299035 -4.22716 0.0357446
0.0156971 -1.12186 -0.0753741
0.00384209 -1.25047 -0.0694576
-0.0205748 -1.11577 -0.0809121
-0.00198908 -0.996406 -0.0369069
0.000739615 -0.459239 0.0266508
0.0218952 -0.668442 0.00880972
0.0313008 -0.637074 0.0443563
0.000451661 -0.55905 0.0365422
0.0141089 -0.639281 0.0136995
0.0151894 -0.569799 0.0366847
-0.00117849 -0.514294 0.0351584
0.0313245 -0.702722 0.0191786
0.0147139 -0.690723 0.0150102
0.0227925 -0.619368 0.0440911
2.967e-017 -2.4356e-016 -5.10195e-018
1.29011e-016 -2.81822e-017 9.948e-018
0.598801 -0.49858 0.0181791
0.87426 -0.445502 -0.0152548
-6.48272e-017 3.57846e-017 1.11927e-029
0.368838 -0.598799 0.0393124
0.458681 -0.413134 0.0507091
0.405081 -0.339448 0.0671687
0.476162 -0.264941 0.0493906
0.80843 -0.497536 0.0154938
-3.11847e-018 -2.30833e-016 -1.81063e-017
-0.00513802 -0.898986 -0.0570007
-9.5607e-031 7.96848e-029 4.86223e-030
0.00728616 -0.828026 -0.0327668
-0.00830668 -0.744537 -0.0550219
-5.52506e-018 -4.15429e-016 -4.57115e-017
-0.00217761 -0.714111 -0.0405593
0.00246897 -0.751361 -0.0556237
0.00423161 -0.874111 -0.0441906
0.00687216 -0.644049 -0.0375449
8.44322e-030 5.17128e-029 2.79065e-031
-0.50428 -4.58114 -0.0438852
7.55724e-030 1.70697e-028 4.62405e-031
1.35552e-029 8.1973e-029 1.10825e-030
-0.396739 -3.13681 -0.0182863
-4.50121e-016 -4.57335e-015 -2.4509e-017
7.05012e-030 -4.12856e-029 8.41371e-030
-0.250353 -3.16659 -0.0251615
-0.378996 -3.17498 -0.0669141
-3.74428e-016 -4.02113e-015 -6.96159e-017
0.983119 -0.00126552 0.000402812
-4.72673e-029 4.26736e-032 1.10382e-032
-4.89646e-029 1.12861e-031 1.06081e-031
-8.23018e-029 1.34616e-031 1.18608e-031
0.799239 0.000729218 -0.000415524
0.800267 -0.00096021 -0.00216421
0.793921 0.000696436 -0.00183517
3.41322e-029 -1.7842e-019 1.23507e-018
3.14932e-029 -3.62823e-019 4.32216e-019
6.39496e-017 2.14002e-020 -1.28576e-031
0.212551 -0.640537 -0.0292746
0.31327 -1.02246 -0.0467677
0.260216 -0.887105 0.0715875
0.0945562 -0.940826 -0.0228938
0.321001 -0.95377 -0.0118431
0.268332 -0.763598 0.0245904
0.124488 -0.923289 -0.00779454
0.311344 -1.07375 0.00538286
0.19774 -0.942383 -0.0344817
0.19106 -0.988938 0.00418984
-1.68866e-028 4.35265e-031 -1.08103e-031
-1.03425e-028 2.48266e-031 3.49304e-031
-1.25043e-028 7.18488e-031 -4.25667e-032
0.969772 -0.00462192 -0.00193182
4.76347e-017 -4.05933e-021 -2.55551e-019
4.63694e-017 -3.82289e-021 -3.07292e-021
0.84019 -0.00301669 -0.0033023
2.20549e-018 1.4416e-029 3.03102e-031
0.77964 0.001623 -0.00375235
0.861631 -0.00442421 -0.00178715
3.27998e-029 2.48185e-029 -2.89657e-030
-1.47187 -1.4247 0.204406
1.08379e-029 8.55994e-030 -1.47342e-030
-1.14968 -0.951183 0.145456
-0.983533 -0.611115 0.0942321
2.59641e-015 2.05821e-015 -3.81362e-016
-1.52263 -1.11724 0.150991
-0.983866 -0.86907 0.162027
-0.929824 -0.636514 0.1046
-2.01345 -0.00696098 0.00972642
4.25896e-028 2.84692e-031 -1.30265e-032
3.41742e-029 1.25195e-032 -3.55011e-031
-2.00128 0.00375286 0.000356399
-1.40293 -0.00762697 0.000749248
-1.30392 -0.0108618 0.0130378
-2.18092 0.00170666 0.000733228
-5.9078e-029 3.74515e-031 1.13508e-030
-1.19735 0.000351048 -0.00472847
-1.29783 0.0080275 0.00342896
-8.45348e-029 1.42117e-030 6.63596e-031
-3.18758e-029 1.41183e-030 5.67239e-031
-4.66308e-029 2.86882e-030 1.9139e-030
-1.17176e-016 2.47209e-018 2.37106e-018
-3.00544e-018 7.20945e-020 7.41911e-020
0.699281 -0.0164473 -0.00753827
-4.19523e-017 1.60416e-018 1.39979e-018
0.655836 -0.0276208 -0.0139073
0.671904 -0.0305635 -0.0182411
-1.7562e-028 1.73447e-030 -2.10452e-031
0.851335 -0.00677198 -0.00111001
0.727112 -0.00890946 0.0027243
0.781239 -0.00825842 0.000394035
1.0642 -0.0213029 -0.000885982
1.08892 -0.00719568 0.00154068
0.982229 -0.015209 0.000694997
-4.14553e-029 3.65796e-030 -1.37596e-031
-7.60155e-029 1.95666e-030 2.0039e-031
1.39376e-016 -7.4061e-018 -2.13925e-018
1.20261e-016 -6.04627e-018 -1.2086e-018
0.659313 -0.0426675 -0.00260229
1.08646e-017 -3.58482e-019 -2.52349e-019
0.675249 -0.0261798 -0.00962656
-1.37805e-028 -6.14712e-031 2.11389e-031
0.968962 0.00494978 -0.000171259
-9.33925e-029 -4.64455e-031 -4.48078e-032
0.674862 0.000910154 0.0011619
-2.40284e-016 -2.77007e-018 7.61179e-019
0.846183 0.00419242 -0.00121563
0.705462 0.00592229 0.000705377
1.01601 0.00445346 0.0016809
0.74122 0.0094564 -0.00353616
-3.87969e-029 2.41603e-031 -3.48716e-031
-1.1122e-028 1.31002e-031 -8.21125e-031
-1.29685e-028 9.14139e-031 -6.06005e-031
8.58509e-017 -1.43903e-018 2.43993e-018
-9.26879e-017 1.74877e-018 -2.17413e-018
0.689728 -0.00835912 0.0157103
-6.00888e-017 1.10287e-018 -1.11185e-018
0.712649 -0.00830306 0.0115343
0.715235 -0.0103016 0.0069974
-2.17608e-029 5.36903e-029 3.87896e-030
0.433593 -1.48323 -0.132307
-2.74052e-029 4.67799e-029 1.0763e-029
0.788679 -1.07396 -0.132214
0.367194 -0.866619 -0.0511624
7.26622e-017 5.78433e-017 -1.1842e-017
0.439571 -0.951226 -0.0747778
0.358077 -0.691247 -0.134706
0.657671 -1.40452 -0.192249
0.563591 -0.833777 -0.173271
-1.05459e-029 5.21483e-030 2.59089e-030
-1.0029e-028 9.67455e-030 2.29741e-030
-7.82202e-030 2.42489e-029 2.30823e-030
0.378161 -0.0926935 -0.0916453
0.363291 -0.0830116 -0.0569695
0.297058 -0.199527 -0.1107
5.28704e-030 7.86498e-030 -7.11261e-030
4.89485e-017 -6.52156e-017 -3.53059e-017
-7.47223e-017 4.34442e-017 2.89479e-017
-5.0972e-029 3.3603e-030 -7.92633e-031
-3.44623e-017 2.23176e-018 -2.89504e-019
1.32716e-016 -6.10637e-018 9.82497e-020
0.729683 -0.0422199 0.0067733
-1.19017 -4.26033 -0.0813019
2.12129e-029 6.25452e-029 1.61819e-030
-1.58903 -4.19165 -0.0246775
4.68132e-029 1.57363e-028 1.21736e-030
-0.885339 -2.79651 -0.0807137
-1.47335 -4.31278 -0.0732829
-0.876093 -3.14814 -0.0560697
-1.10997 -3.07256 -0.0971066
1.60103e-016 4.87607e-016 1.58183e-017
-0.990956 -3.00207 -0.0443071
-1.47209 -4.29153 0.142213
-1.81076 -4.69695 -0.0208305
-1.18701 -3.31169 0.348008
-0.997513 -4.53952 0.235545
-1.7023 -4.6772 0.0616129
-1.34351 -4.26291 0.300613
-1.42026 -4.83268 0.0938396
-1.05944 -3.89327 0.46834
-1.63024 -4.63648 0.16628
0.970199 0.00237933 0.000900825
-2.11188e-028 -5.05076e-031 5.36386e-031
-9.03397e-029 -4.80376e-031 -1.75327e-032
0.986397 0.00276498 0.000247477
0.70353 0.00378365 0.000275034
0.677934 0.00619648 0.00188519
1.00833 0.00537051 0.000839029
1.00082e-028 -6.35638e-031 -1.20009e-029
0.896737 -0.00105732 -0.00226259
0.813371 0.000907253 0.000705256
-4.06036e-029 -8.84996e-032 -1.80015e-032
-1.03567e-028 1.27198e-031 -2.96676e-031
-1.88335e-028 -3.91795e-031 -3.51842e-031
3.11742e-029 6.50661e-030 1.1501e-029
0.691244 0.0019 -0.000405845
1.61447e-016 8.56601e-019 1.92625e-019
0.744332 0.000191105 0.00410423
-7.21316e-017 -1.43537e-019 -2.50724e-019
0.679936 0.00189268 0.00168791
-5.80998e-029 2.01943e-032 4.62706e-032
-1.1079e-028 -4.85258e-032 -1.73112e-031
0.986439 -1.72928e-005 -0.000555949
-1.88118e-028 3.46055e-031 -4.0582e-031
1.9931e-016 1.93305e-019 3.83673e-019
0.867666 0.000438628 -0.000216965
-1.58057e-016 2.91865e-019 -2.74219e-019
0.881345 0.000770684 0.0023564
7.29342e-017 1.27686e-019 4.44935e-019
0.839272 -0.0026885 0.00204472
0.959818 0.00377954 -0.00213943
-2.10066e-028 -5.49597e-031 2.4502e-031
1.09118 0.00341793 0.000725165
0.780861 0.0027648 -0.00375983
0.979356 0.00474439 0.001018
0.839546 0.000718016 0.00211735
1.08616 0.00283624 -2.69167e-005
0.85631 0.00419011 -0.00019323
3.3855e-029 5.15596e-031 -9.336e-032
-0.943485 -0.0209559 0.00832527
2.51515e-016 1.04506e-017 -2.51418e-018
-1.23752 -0.016555 0.00806722
-1.86625 -0.0419092 0.00131341
-2.66848e-030 9.15414e-029 -5.4065e-030
3.42778e-032 1.51676e-028 -9.48974e-030
0.0216354 -1.07542 0.0549793
-0.00294999 -1.07367 0.0556027
0.02696 -0.861441 0.0553415
-3.61544e-018 1.78591e-016 -1.07593e-017
0.0187592 -0.942404 0.0563194
-0.000737851 -0.590851 -0.00528159
-0.0328235 -0.680443 -0.0220353
-0.00205303 -0.549183 0.00335212
-0.0012048 -0.624926 -0.00713311
-0.0155829 -0.652996 -0.0115009
-0.0036808 -0.561803 -0.00200202
-0.0011308 -0.616107 -0.010625
-0.0121786 -0.633237 -0.00703114
-0.00842615 -0.661908 -0.0128042
-4.2106e-005 -0.586158 -0.00637415
-0.0214718 -0.789711 -0.0355002
-0.00402025 -0.690358 -0.0230904
-0.00295166 -0.739915 -0.0204088
2.05595e-028 4.89321e-030 1.24465e-030
3.32504e-028 9.59526e-030 4.62463e-031
6.43763e-029 8.48285e-031 1.15584e-031
-1.58676 -0.026393 -0.00795882
-1.49668 -0.0330764 -0.00819903
-1.51806 -0.0258561 -0.00473528
-3.62065e-016 1.3582e-018 -1.12476e-018
-4.3995e-016 -9.01737e-018 -3.06775e-018
-4.19947e-016 -1.05014e-017 -3.12109e-018
7.75162e-030 3.2084e-029 -1.11421e-030
-1.51319 -4.21671 0.0399457
4.19709e-029 2.0485e-028 -8.26805e-031
1.60595e-029 8.02062e-029 -2.41933e-030
-1.00658 -4.19108 0.14248
-2.67347e-030 -2.76579e-029 -1.2124e-029
-5.02859e-016 -2.74585e-015 1.20935e-016
-0.911087 -4.14699 0.0556942
-0.882352 -4.10039 0.149815
-3.70636e-016 -2.19449e-015 6.63228e-017
-0.0142116 -0.767546 -0.0293771
-0.0231413 -0.756775 -0.0257772
-0.0127436 -0.834053 -0.0400152
-0.00234401 -0.732299 -0.0103106
-2.24339e-028 -2.7681e-031 7.82187e-031
-3.86266e-029 1.90024e-031 1.21957e-031
-1.25893e-028 2.78044e-030 -2.85931e-032
3.92369e-029 -9.18201e-030 -8.28965e-030
0.831123 0.00710909 -0.00737499
5.21044e-029 -1.22271e-029 -9.04808e-030
0.744748 -0.00946839 -0.00258445
3.65227e-029 -7.67283e-030 -1.01806e-029