# vtk DataFile Version 2.0 
output.vtk, Created by Freefem++, via gregorio
ASCII
DATASET UNSTRUCTURED_GRID
POINTS 7451 double
-3.79965 2.23652 0.040848
-4.13429 2.05574 0.276253
-4.09122 2.24524 0.070091
-4.01836 2.27766 0.330071
-3.96697 2.14613 0.158551
-3.94543 2.24088 0.0554695
-3.90901 2.25709 0.185459
-4.11275 2.15049 0.173172
-4.07633 2.1667 0.303162
-4.05479 2.26145 0.200081
-4.81817 0.732763 -0.840268
-4.76136 0.37264 -0.736193
-5.12328 0.495929 -0.550642
-4.73872 0.559667 -0.434419
-4.78977 0.552702 -0.788231
-4.97072 0.614346 -0.695455
-4.77845 0.646215 -0.637344
-4.94232 0.434285 -0.643417
-4.75004 0.466153 -0.585306
-4.931 0.527798 -0.49253
-7.58244 -0.891248 -0.453516
-8 -0.559587 0.124298
-7.26059 -0.264226 0.250847
-7.58828 -0.999993 0.00381
-7.79122 -0.725418 -0.164609
-7.42152 -0.577737 -0.101334
-7.58536 -0.94562 -0.224853
-7.6303 -0.411906 0.187573
-7.79414 -0.77979 0.064054
-7.42444 -0.632109 0.127328
-5.46564 0.048234 0.998836
-5.51396 -0.351144 0.936321
-5.02851 -0.125769 0.598961
-5.56665 -0.148801 0.504295
-5.4898 -0.151455 0.967578
-5.24708 -0.0387675 0.798898
-5.51614 -0.0502835 0.751565
-5.27124 -0.238457 0.767641
-5.5403 -0.249972 0.720308
-5.29758 -0.137285 0.551628
-4.20269 -2.80441 0.102764
-3.63085 -2.57461 -0.287529
-4.13183 -2.29387 0.255347
-4.14432 -2.47254 -0.273935
-3.91677 -2.68951 -0.0923825
-4.16726 -2.54914 0.179055
-4.1735 -2.63848 -0.0855855
-3.88134 -2.43424 -0.016091
-3.88759 -2.52358 -0.280732
-4.13807 -2.38321 -0.009294
-6.25062 -0.085247 0.575431
-6.51584 -0.423084 -0.15939
-6.46019 0.447486 0.293263
-6.75561 -0.174737 0.413139
-6.38323 -0.254165 0.20802
-6.35541 0.181119 0.434347
-6.88822 -0.343655 0.0457285
-6.86039 0.09163 0.272055
-6.48801 0.012201 0.0669365
-4.88162 0.371746 0.655425
-4.51246 -0.112716 0.623981
-4.65723 0.09269 0.995695
-4.69704 0.129515 0.639703
-4.95507 0.122989 0.627193
-4.76942 0.232218 0.82556
-4.77049 -0.119243 0.611471
-4.58484 -0.010013 0.809838
-4.84287 -0.0165395 0.797328
-3.75099 1.20677 0.090288
-3.64118 0.745776 0.266863
-4.09568 0.790235 0.315934
-3.78936 1.07086 0.69071
-3.69609 0.976272 0.178575
-3.92333 0.998502 0.203111
-3.77017 1.13882 0.390499
-3.86843 0.768006 0.291399
-3.71527 0.908319 0.478787
-3.94252 0.930549 0.503322
-2.18572 0.40145 0.915881
-1.75478 0.245881 0.526965
-1.94554 -0.013967 0.999902
-1.76886 0.356252 0.93439
-1.97025 0.323665 0.721423
-2.06563 0.193741 0.957891
-1.97729 0.378851 0.925135
-1.85016 0.115957 0.763433
-1.76182 0.301067 0.730678
-1.8572 0.171143 0.967146
-5.06116 0.824959 0.710182
-4.88551 0.773989 0.80113
-4.92155 0.772883 0.437198
-5.01596 0.602336 0.857802
-4.97333 0.799474 0.755656
-4.99135 0.798921 0.57369
-5.03856 0.713647 0.783992
-4.90353 0.773436 0.619164
-4.95074 0.688163 0.829466
-4.96876 0.687609 0.6475
-2.34262 2.51752 0.051733
-2.4672 2.85727 -0.311185
-2.29554 2.81673 0.086134
-2.65762 2.74748 0.16058
-2.40491 2.6874 -0.129726
-2.31908 2.66712 0.0689335
-2.50012 2.6325 0.106157
-2.38137 2.837 -0.112526
-2.56241 2.80238 -0.0753025
-2.47658 2.7821 0.123357
-3.50303 -3.76846 -0.636668
-3.49422 -3.29308 -1.15018
-3.31427 -3.71149 -1.25136
-2.90724 -3.34218 -0.858121
-3.49863 -3.53077 -0.893424
-3.40865 -3.73997 -0.944014
-3.20514 -3.55532 -0.747394
-3.40425 -3.50228 -1.20077
-3.20073 -3.31763 -1.00415
-3.11076 -3.52683 -1.05474
-4.0054 2.49156 -0.125899
-3.5956 2.50054 -0.194198
-3.83412 2.54803 0.0159
-3.8005 2.49605 -0.160049
-3.90253 2.36404 -0.0425255
-3.91976 2.5198 -0.0549995
-3.69763 2.36853 -0.076675
-3.71486 2.52428 -0.089149
-3.81689 2.39228 0.028374
-3.73452 -3.68531 -1.05781
-3.52439 -3.6984 -1.15459
-3.61437 -3.4892 -1.104
-3.61877 -3.72688 -0.84724
-6.37864 0.944563 0.328331
-6.25891 0.813305 0.581838
-6.65332 0.772267 0.635298
-6.31878 0.878934 0.455085
-6.41941 0.696025 0.310797
-6.51598 0.858415 0.481815
-6.35955 0.630395 0.43755
-6.45612 0.792786 0.608568
-6.55675 0.609877 0.46428
1.62066 -0.841518 -0.540229
1.89324 0.238579 -0.195511
2.01627 -0.690819 -0.723027
2.25185 -0.211859 0.261412
1.75695 -0.30147 -0.36787
1.81846 -0.766169 -0.631628
1.93625 -0.526689 -0.139408
1.95475 -0.22612 -0.459269
2.07254 0.01336 0.0329505
2.13406 -0.451339 -0.230807
-2.56949 2.06853 0.305158
-2.91403 1.60744 0.564909
-3.02709 2.08175 0.021586
-2.87501 2.07662 0.630995
-2.74176 1.83799 0.435033
-2.79829 2.07514 0.163372
-2.72225 2.07258 0.468077
-2.97056 1.8446 0.293247
-2.89452 1.84203 0.597952
-2.95105 2.07919 0.32629
-5.39985 0.358755 0.933432
-5.34934 0.453264 0.543553
-5.56264 0.558471 0.829524
-5.70805 0.297641 0.954678
-5.37459 0.40601 0.738492
-5.48124 0.458613 0.881478
-5.55395 0.328198 0.944055
-5.45599 0.505868 0.686538
-5.52869 0.375452 0.749116
-5.63535 0.428056 0.892101
-4.17913 0.323834 -0.696515
-4.36183 0.516245 -0.417662
-4.60784 0.019305 -0.528365
-4.46586 0.364911 -0.72315
-4.27048 0.42004 -0.557088
-4.39349 0.17157 -0.61244
-4.3225 0.344372 -0.709832
-4.48483 0.267775 -0.473013
-4.41384 0.440578 -0.570406
-4.53685 0.192108 -0.625757
-5.9377 0.438799 -0.558905
-5.87927 0.529091 -0.848565
-6.25926 0.555743 -0.831354
-6.07929 0.245277 -0.969453
-5.90849 0.483945 -0.703735
-6.09848 0.497271 -0.695129
-6.00849 0.342038 -0.764179
-6.06927 0.542417 -0.839959
-5.97928 0.387184 -0.909009
-6.16928 0.40051 -0.900404
-3.64743 2.72944 0.180305
-3.74077 2.63873 0.0981025
-3.72354 2.48298 0.110576
-3.62151 2.61499 -0.0069465
-3.98168 0.388062 0.141859
-3.76543 0.320245 0.603448
-3.81143 0.566919 0.204361
-3.70331 0.533011 0.435156
-4.03868 0.589149 0.228897
-3.87356 0.354154 0.372653
-3.93055 0.55524 0.459691
-6.17342 0.027823 -0.593282
-6.59748 0.255766 -0.966739
-6.35964 0.547779 -0.240473
-6.21634 0.291783 -0.712318
-6.42837 0.405755 -0.899047
-6.30945 0.551761 -0.535914
-6.38545 0.141794 -0.78001
-6.26653 0.287801 -0.416878
-6.47856 0.401772 -0.603606
-5.98474 0.742767 -0.66955
-5.96122 0.590783 -0.614227
-6.122 0.649255 -0.750452
-5.93201 0.635929 -0.759057
-5.86659 0.345457 -0.129882
-5.96054 -0.099592 -0.035866
-6.02 0.18664 -0.361582
-6.11312 0.446618 -0.185177
-5.91357 0.122933 -0.082874
-6.06698 -0.0358845 -0.314574
-6.16009 0.224094 -0.13817
-1.10421 0.363269 -0.931684
-0.773878 0.737644 -0.67519
-0.520452 0.269543 -0.962988
-0.384634 0.008888 -0.353445
-0.939043 0.550457 -0.803437
-0.812329 0.316406 -0.947336
-0.74442 0.186079 -0.642564
-0.647165 0.503594 -0.819089
-0.579256 0.373266 -0.514317
-0.452543 0.139215 -0.658216
-2.85287 -3.00249 -1.21636
-3.23054 -2.92385 -1.196
-3.06719 -3.3306 -1.25351
-2.88006 -3.17233 -1.03724
-3.06889 -3.13301 -1.02706
-2.98722 -3.33639 -1.05581
-3.0417 -2.96317 -1.20618
-2.96003 -3.16654 -1.23493
-3.14886 -3.12722 -1.22475
-3.38618 -2.05134 -0.098565
-2.37808 -2.56123 -0.134541
-2.49252 -2.47812 0.422472
-2.41131 -1.89586 0.044632
-2.88213 -2.30628 -0.116553
-2.93935 -2.26473 0.161954
-2.89875 -1.9736 -0.0269665
-2.4353 -2.51967 0.143966
-2.39469 -2.22855 -0.0449545
-2.45192 -2.18699 0.233552
-1.85713 -0.413967 0.42138
-1.65927 -0.390905 0.920431
-1.2503 -0.077569 0.384148
-1.80595 -0.084043 0.474172
-1.70702 -0.072512 0.723698
-1.50254 0.084156 0.455557
-1.7582 -0.402436 0.670905
-1.55371 -0.245768 0.402764
-1.45478 -0.234237 0.652289
-2.09043 2.55218 0.167395
-2.0659 2.66009 -0.048555
-2.19298 2.68445 0.126765
-2.18072 2.73841 0.0187895
-2.07816 2.60614 0.05942
-2.21652 2.53485 0.109564
-2.20426 2.58881 0.001589
-4.01665 2.44382 0.136481
-3.97233 2.67361 0.084512
-3.92539 2.49592 0.0761905
-3.99449 2.55872 0.110496
-4.01103 2.46769 0.005291
-3.90323 2.61082 0.050206
-3.98887 2.58259 -0.0206935
-3.92754 1.80484 -0.220103
-4.28096 1.83407 -0.225431
-4.13592 1.88983 -0.461486
-4.146 2.03152 -0.278406
-4.10425 1.81945 -0.222767
-4.03173 1.84734 -0.340795
-4.03677 1.91818 -0.249254
-4.20844 1.86195 -0.343458
-4.21348 1.9328 -0.251918
-4.14096 1.96068 -0.369946
-4.04038 -5 0.949212
-3.62468 -5 1.26221
-3.84559 -4.54287 1.07336
-3.71487 -5 0.728948
-3.83253 -5 1.10571
-3.94299 -4.77144 1.01129
-3.87763 -5 0.83908
-3.73513 -4.77144 1.16779
-3.66977 -5 0.99558
-3.78023 -4.77144 0.901156
-1.37334 0.812082 -0.583544
-0.975724 0.961208 -0.275823
-1.19336 -0.166381 -0.273753
-1.17453 0.886645 -0.429683
-1.07361 0.774863 -0.629367
-1.28335 0.32285 -0.428648
-0.874801 0.849426 -0.475506
-1.08454 0.397413 -0.274788
-0.983618 0.285631 -0.474471
-3.83515 -1.82017 -0.741539
-3.34976 -1.58414 -0.592596
-3.50394 -2.07825 -1.02313
-3.59245 -1.70215 -0.667067
-3.66955 -1.94921 -0.882335
-3.61067 -1.93575 -0.420052
-3.42685 -1.83119 -0.807863
-3.36797 -1.81774 -0.345581
-3.44506 -2.06479 -0.560848
-2.72946 0.769161 0.094533
-2.75119 0.681139 -0.326037
-2.98528 1.02631 -0.281501
-3.08113 0.734324 -0.34324
-2.74032 0.72515 -0.115752
-2.85737 0.897737 -0.093484
-2.90529 0.751742 -0.124353
-2.86823 0.853726 -0.303769
-2.91616 0.707731 -0.334639
-3.03321 0.880319 -0.31237
-2.94023 -2.47675 -0.674772
-3.14499 -2.03044 -0.633684
-3.22209 -2.2775 -0.848951
-3.16321 -2.26404 -0.386669
-3.03914 -4.25341 0.579285
-2.64287 -3.80807 0.20828
-2.47531 -4.18593 0.714333
-2.97264 -3.41482 0.618231
-2.84101 -4.03074 0.393783
-2.75723 -4.21967 0.646809
-3.00589 -3.83412 0.598758
-2.55909 -3.997 0.461307
-2.80776 -3.61144 0.413255
-2.72397 -3.80037 0.666282
-2.39684 -0.595487 -0.803365
-1.98884 -0.54749 -0.836812
-2.24172 -0.466498 -0.098067
-2.21295 -0.01831 -0.514797
-2.19284 -0.571489 -0.820088
-2.31928 -0.530992 -0.450716
-2.3049 -0.306899 -0.659081
-2.11528 -0.506994 -0.46744
-2.1009 -0.2829 -0.675804
-2.22734 -0.242404 -0.306432
-3.36239 -4.55484 -1.31864
-3.11171 -4.25429 -0.873787
-2.86199 -4.55394 -1.36046
-2.79118 -5 -0.96439
-3.23705 -4.40456 -1.09621
-3.11219 -4.55439 -1.33955
-3.07678 -4.77742 -1.14151
-2.98685 -4.40411 -1.11712
-2.95144 -4.62714 -0.919088
-2.82658 -4.77697 -1.16243
-3.88203 2.65205 -0.416886
-3.48121 2.84727 -0.340672
-3.82273 3 -0.474998
-3.72541 2.76868 -0.627028
-3.68162 2.74966 -0.378779
-3.85238 2.82603 -0.445942
-3.80372 2.71037 -0.521957
-3.65197 2.92364 -0.407835
-3.60331 2.80798 -0.48385
-3.77407 2.88434 -0.551013
[...]
POINT_DATA 7451
 
FIELD FieldData 2
velocity 3 7451 double
-0.122184 -0.347848 0.00942165
1.55874e-030 3.51978e-030 -1.91985e-031
4.52891e-031 1.23632e-030 -5.67349e-032
1.30306e-030 3.50066e-030 -1.75382e-031
-0.0832084 -0.203226 0.011249
-0.072547 -0.199803 0.00912346
-0.0800868 -0.231694 0.0120818
-1.87176e-018 -4.53005e-018 3.09675e-019
5.6503e-018 1.40456e-017 -1.08377e-018
1.90936e-029 -8.19299e-030 -4.45255e-030
9.02714e-030 3.01363e-030 -2.02155e-031
-0.410246 -0.109271 0.00099714
-0.625583 -0.142523 0.00731618
-0.705033 -0.230572 0.00596359
-0.226757 -0.0769426 0.00696739
-0.305925 -0.0931561 0.00977774
-0.404804 -0.146896 0.00925627
-0.53413 -0.13429 0.00689322
-0.591565 -0.174565 0.00521551
-0.674867 -0.192546 0.00825866
9.68772e-029 -2.97094e-031 2.80763e-032
-0.846049 0.00728852 -0.000619989
-1.10279 3.07799e-005 -0.000586463
5.59505e-029 -2.24463e-031 5.35386e-032
-0.55123 0.00340515 6.3823e-005
-0.834399 -1.22803e-005 -0.00252919
-1.34198e-016 2.46816e-019 -3.16131e-019
-1.00589 0.00126801 -7.00491e-005
-0.478741 0.00632641 -0.000805422
-0.741016 0.00191104 -0.000176325
3.29721e-029 3.41005e-030 5.9736e-032
2.1711e-029 1.38827e-030 2.842e-031
-0.699337 -0.104441 -0.0137591
-0.883474 -0.0619319 -0.00508123
-1.47108e-016 -6.08134e-018 -1.47368e-018
-0.422361 -0.0482545 -0.00393965
-0.525736 -0.0335614 -0.00350877
-0.403169 -0.0313538 -0.00762618
-0.504923 -0.0232606 -0.00494481
-0.797034 -0.0854659 -0.00849569
-4.32382e-030 -6.61799e-029 1.67965e-030
0.0266356 0.435103 0.00399211
-4.71533e-030 -7.82698e-029 2.18988e-030
-8.30857e-031 -9.90008e-030 -1.15277e-032
0.0240395 0.294998 -0.00282445
-5.31196e-017 -5.90226e-016 1.61253e-017
-4.06061e-018 -4.11144e-017 4.87581e-019
0.0272431 0.348802 -0.00469665
0.022388 0.257794 0.000844838
-5.83948e-017 -6.25618e-016 9.40387e-018
-0.829691 -0.0162735 -0.00240529
-1.00171 -0.0096265 -0.00218429
-0.902099 -0.0129226 -0.000948657
-1.00905 -0.00263446 -0.000991602
-1.13018 -0.0172491 -0.00315418
-0.983555 -0.0171356 -0.00230401
-1.1141 -0.00467486 -0.003814
-1.16804 -0.00252209 -0.000491992
-1.26768 -0.0169661 -0.00155636
-0.562881 -0.186092 0.00462087
-0.569614 -0.101965 -0.0202572
1.87683e-029 5.14856e-030 1.98502e-031
-0.62284 -0.164979 -0.00817303
-0.688117 -0.153972 -0.00385723
-0.309256 -0.108889 0.0031897
-0.63423 -0.111712 -0.0189094
-0.341817 -0.0932712 -0.0102608
-0.389669 -0.0841465 -0.00826884
-0.428674 -0.452063 -0.0213044
-0.464703 -0.262877 -0.0469061
-0.603916 -0.334054 -0.0133754
-0.238456 -0.299624 0.000104421
-0.463391 -0.382806 -0.0369825
-0.517899 -0.395433 -0.0186347
-0.392269 -0.415075 -0.0143704
-0.551901 -0.307266 -0.030012
-0.385199 -0.326276 -0.0221096
-0.421477 -0.333234 -0.0061924
-1.71633e-029 -6.26916e-030 1.05146e-030
0.34762 0.0506484 -0.00563473
-2.06517e-029 -6.00474e-030 -3.87701e-031
-4.36625e-030 -2.10884e-031 1.53637e-032
0.187382 0.028257 -0.00529636
6.00816e-017 4.57843e-018 2.38622e-018
3.20828e-018 2.02653e-019 -1.72877e-020
0.212569 0.0161903 -0.0010403
0.198393 0.0104562 0.00133683
-6.90302e-017 -3.84894e-019 -9.06391e-019
2.49566e-017 1.16097e-017 -7.05313e-019
2.76486e-030 1.26148e-030 -5.38786e-032
-0.507704 -0.209807 0.00886232
2.95367e-030 1.20829e-030 -5.59948e-032
1.24824e-017 6.26087e-018 -3.94087e-019
-0.286162 -0.126528 0.00671585
1.54563e-016 6.94872e-017 -2.29648e-018
-0.286267 -0.138167 0.00777325
1.52142e-016 7.79731e-017 -3.46429e-018
-0.315734 -0.134847 0.005854
-0.033164 -0.236762 -0.0132398
-0.0203746 -0.25189 -0.00865268
-0.0125843 -0.236059 -0.00674953
-0.0521183 -0.49868 -0.0146526
-0.0289253 -0.267336 -0.0109416
-0.0231287 -0.237516 -0.0101612
-0.0454644 -0.378648 -0.0158148
-0.0187287 -0.269836 -0.00923209
-0.0380608 -0.395971 -0.0120494
-0.032021 -0.383008 -0.0113164
0.0114778 0.273327 0.00852579
-6.60871e-031 -2.09133e-029 -1.05358e-030
-3.31255e-031 -1.59449e-029 -9.01723e-031
-0.00174692 0.226925 0.012925
0.0064491 0.144679 0.0080286
0.00561987 0.141855 0.00804106
0.0048451 0.278364 0.0119421
2.21995e-029 2.10966e-030 6.44635e-029
0.00232604 0.134791 0.00910996
0.00116628 0.116007 0.00823619
9.65846e-031 3.56539e-030 -9.95345e-032
-0.0905753 -0.372028 0.0039148
-0.04847 -0.229922 0.00494266
-0.058069 -0.233723 0.00624722
-0.0602954 -0.194423 0.00611337
-0.0276319 -0.117449 0.00337414
-0.11027 -0.372628 0.00578925
-0.0760492 -0.330391 0.00566127
-0.0823159 -0.287538 0.00749929
-2.66208e-031 -4.6798e-030 -2.27248e-031
-3.66512e-018 -6.84742e-017 -5.00898e-018
3.56464e-018 6.12596e-017 4.38893e-018
0.00775043 0.137383 0.00665136
1.02883e-029 1.75663e-031 2.65332e-033
1.36304e-029 2.27435e-031 1.63775e-032
1.77813e-029 1.89464e-031 4.40907e-032
6.94643e-017 1.53637e-018 8.69081e-020
-0.519844 -0.0127851 -0.000527896
-4.96138e-030 -4.51753e-029 -2.28192e-029
-0.510352 -0.00648537 -0.000671014
-1.8149e-017 8.20305e-019 -3.8841e-020
-0.519333 -0.00584987 -0.00104166
-1.50037e-028 3.79393e-031 -7.22052e-032
0.484207 0.000557176 0.000716041
-5.54896e-029 3.92438e-032 -1.30589e-031
0.471746 -0.00217823 0.00129668
0.415297 -0.00127247 0.000286576
-6.664e-017 3.71785e-020 -3.03045e-019
0.374858 -0.000228563 0.00135088
0.392957 0.000690288 0.000861163
0.534211 -0.00105136 0.00162471
0.396334 -0.00115921 0.00173182
-0.0802033 -0.328793 -0.0278815
-0.118236 -0.339942 -0.0329875
-0.170344 -0.535437 -0.0253003
-0.0905192 -0.407044 -0.0206101
-0.106736 -0.361499 -0.0333504
-0.134337 -0.482321 -0.0325887
-0.0935006 -0.398536 -0.0285463
-0.177821 -0.516804 -0.0363749
-0.107865 -0.380744 -0.0272668
-0.151559 -0.549681 -0.0300933
3.11247e-030 4.11662e-031 -6.85792e-032
-0.667725 -0.123364 0.00997741
6.73051e-030 5.39734e-031 -1.18547e-031
2.98673e-029 1.99403e-030 -1.53504e-031
-0.376408 -0.0498836 0.0103004
-9.78635e-017 -7.77669e-018 3.42389e-018
1.36158e-016 6.22349e-018 -3.97116e-018
-0.364025 -0.0441062 0.00891273
-0.37991 -0.0311077 0.00700953
-2.22022e-017 -7.12914e-019 7.79619e-019
-0.402746 -0.102036 -0.0145181
-0.684928 -0.233068 -0.0114137
-0.727043 -0.113085 -0.00672923
-0.408118 -0.118105 -0.00513982
-0.565566 -0.170132 -0.0140547
-0.581405 -0.118568 -0.0114409
-0.410009 -0.114342 -0.00960105
-0.741411 -0.174852 -0.0115211
-0.577272 -0.181722 -0.00664581
-0.592288 -0.127628 -0.00635277
-0.626234 -0.0136317 0.00187398
3.34846e-030 3.97181e-032 -6.67124e-033
2.98147e-029 3.66312e-031 -1.52182e-031
1.37298e-029 1.8648e-031 -2.75259e-032
-0.33764 -0.003393 0.00126921
-0.335166 -0.00631977 0.00281556
-0.365672 -0.00427744 0.00201003
-2.396e-016 -1.92974e-018 2.09685e-018
-1.15501e-016 -2.52969e-019 1.04017e-018
-1.10299e-029 -2.14368e-029 4.81213e-029
-0.0586132 -0.397226 0.00540153
-0.0556439 -0.320979 0.005596
-0.0864449 -0.369606 0.00665886
-0.0792569 -0.414031 0.00420846
-0.739132 -0.150499 -0.0422683
-0.407271 -0.0420027 -0.0192013
-0.602082 -0.202116 -0.0472284
-0.462031 -0.145057 -0.0373227
-0.692563 -0.260872 -0.0297368
-0.612595 -0.0961146 -0.0350273
-0.545141 -0.208895 -0.0208149
-0.810224 -0.0104098 0.00054434
-3.66502e-017 4.27122e-020 8.23162e-020
-0.810695 -0.00916421 0.00344823
-0.506772 -0.00738911 0.00299424
-2.49752e-029 -3.06241e-029 6.04005e-029
-0.506892 -0.0058485 0.00453469
-0.460449 -0.00799472 0.00171564
-0.94102 -0.0127279 0.00302145
-0.590272 -0.00290003 0.00301569
5.4113e-030 9.52879e-032 -7.78618e-033
-0.34223 -0.00647627 0.00199578
-7.72802e-017 -1.26868e-018 8.21929e-019
-1.02067e-016 -8.49765e-019 6.47878e-019
-1.11177 -0.051364 0.002761
-1.24535 -0.0417463 -0.00318384
-1.05857 -0.0267238 0.000650091
-0.977525 -0.0225034 0.00340151
-1.24347 -0.0506662 0.000168474
-1.13678 -0.0263875 -0.00144365
-1.185 -0.027476 0.00142261
1.98215e-017 -1.56909e-019 -3.14049e-019
-4.89592e-029 4.69528e-031 4.79458e-031
-1.81565e-029 5.46742e-032 9.54075e-032
0.475372 -0.00455845 -0.000883035
-3.04929e-017 2.85913e-019 4.44419e-019
1.34907e-029 -3.24571e-029 9.81122e-029
0.290553 -0.00295464 -0.00292781
-3.14269e-017 1.04568e-019 3.21754e-019
0.325116 -0.00363899 -0.00233606
0.293642 9.18204e-005 -0.00200692
7.81807e-032 -7.22834e-030 -5.63146e-031
-3.29022e-031 -2.23632e-029 -1.34173e-030
-6.50295e-033 -2.66493e-030 -2.0007e-031
-0.00128508 0.118216 0.00921245
0.002024 0.125163 0.00995037
5.22205e-005 0.114142 0.00806306
-7.16039e-019 1.22106e-030 5.28174e-029
-7.98035e-020 2.64003e-017 2.40096e-018
6.5496e-019 -5.58856e-017 -5.12963e-018
0.02186 0.719709 -0.00502589
-0.0257097 0.521866 6.5102e-005
-0.0279235 0.713799 -0.0332409
-0.0282553 0.669256 -0.0160647
-0.00737735 0.763762 -0.00177882
-0.00387286 0.913311 -0.0219493
-0.00662651 0.867275 -0.0126703
-0.0282218 0.674357 -0.0132657
-0.0271427 0.596718 -0.00544553
-0.02954 0.72178 -0.0260061
0.366113 0.160105 0.0233502
-2.65607e-029 -1.6554e-030 -1.65363e-031
0.455168 0.0148368 -0.00246131
0.407616 0.103844 3.86276e-005
0.245916 0.00687665 -0.000826449
0.421519 0.0324461 -0.00164984
0.195492 0.00487847 0.00854631
0.411814 0.0517603 -0.00164522
0.268007 0.000698243 -0.00321831
-1.97428e-018 -2.70909e-017 -1.16756e-018
1.10824e-031 1.25826e-030 5.97745e-032
-0.00759176 -0.120018 -0.0043165
-0.0081139 -0.115168 -0.00386409
-4.18043e-018 -5.20281e-017 -2.13422e-018
-0.016603 -0.129605 -0.00723913
-0.015293 -0.121931 -0.0076816
-7.42047e-018 -3.00253e-017 1.1141e-018
2.84161e-031 1.80598e-030 -3.79603e-032
-0.0311671 -0.133303 0.00419475
1.2482e-017 6.63369e-017 -1.60149e-018
2.05183e-029 -6.75278e-030 -1.2194e-031
-0.0211748 -0.131035 0.00188281
2.1824e-017 1.18592e-016 -2.47413e-018
-0.183605 -0.295218 0.00786117
1.47776e-030 2.0674e-030 -1.12729e-031
6.967e-031 1.11938e-030 -5.57078e-032
5.22943e-031 9.10359e-031 -4.68314e-032
-0.112744 -0.169928 0.00937344
-0.103043 -0.164904 0.00824902
-0.0999747 -0.169727 0.00854159
-5.13957e-017 -7.76102e-017 5.67575e-018
-2.86004e-016 -4.54248e-016 3.30774e-017
-1.97557e-016 -3.32218e-016 2.2844e-017
-1.30473e-031 -3.8358e-030 1.55238e-031
-1.9835e-031 -1.10237e-029 4.98811e-031
-6.23721e-031 -1.90973e-029 1.00485e-030
0.00993316 0.391461 -0.012391
-3.46197e-018 -1.50835e-016 6.94953e-018
-5.67941e-019 -1.72677e-017 8.78566e-019
0.00640275 0.230497 -0.00821802
3.08328e-018 1.15653e-016 -1.80827e-018
0.00581936 0.281349 -0.0125421
0.00880008 0.276457 -0.0138123
-5.65655e-029 -5.8529e-032 1.276e-030
-5.94124e-029 3.78061e-031 6.4354e-031
0.478903 -0.0114874 2.94273e-005
2.52297e-017 3.29866e-020 -6.41925e-019
-2.74463e-017 1.59116e-019 6.25042e-019
0.382974 -0.00318086 -0.00831624
-6.23962e-017 5.41138e-019 6.18214e-019
0.419311 -0.00182696 -0.00598934
0.369466 -0.0055368 -0.00335146
6.02984e-020 8.95543e-019 4.22058e-020
0.00726935 0.402135 0.0162911
-2.20974e-030 -6.12563e-029 -2.13716e-030
0.00834947 0.21914 0.0103895
-9.05573e-018 -7.13835e-017 -9.14638e-018
0.019855 0.393646 0.00881581
0.00764076 0.186824 0.0121948
0.0149808 0.589041 0.00881864
0.015973 0.382627 0.0138185
0.0200525 -0.0546506 -0.0487258
0.0191185 -0.0102658 -0.0335516
-0.128526 -0.208666 -0.0351615
-0.135005 -0.10019 -0.046704
0.017852 -0.0424373 -0.0459027
-0.061881 -0.158137 -0.0455174
-0.0625841 -0.100479 -0.0547996
-0.0454022 -0.0928106 -0.0318145
-0.0512308 -0.0530523 -0.0405932
-0.125952 -0.157984 -0.0414782
-0.00172191 0.365913 0.017036
0.00694906 0.412637 0.0171429
0.0072716 0.225008 0.0134695
0.00918044 0.58265 0.0113688
0.000704274 0.657295 -0.0258855
-0.0161653 0.680974 -0.0132493
-0.0171745 0.518261 -0.028543
-0.000728493 0.726007 -0.0389888
-0.00830352 0.719291 -0.0196585
-0.00972319 0.639924 -0.0295009
0.000362239 0.692336 -0.0330158
-0.0188681 0.643467 -0.0215641
-0.0104084 0.750078 -0.0235112
-0.0128149 0.653326 -0.0347636
1.77846e-017 5.36299e-017 3.71385e-018
5.67879e-017 1.41622e-018 1.2136e-019
0.400847 0.444267 -0.0207119
0.301038 0.107228 -0.0258626
1.38707e-029 3.75114e-029 4.24121e-029
0.265215 0.293975 -0.0148617
0.201038 0.111886 -0.0180016
0.298855 0.168233 -0.0169321
0.230971 0.0571363 -0.0124292
0.383975 0.252064 -0.0288827
8.05202e-019 2.06448e-017 1.63048e-018
0.00202182 0.208366 0.00834721
1.94318e-031 -1.35212e-029 -5.12866e-031
-0.00169785 0.155878 0.00291945
0.00231861 0.0985794 0.00575832
1.31868e-018 3.21718e-017 4.3019e-018
0.000602596 0.0884938 0.00335694
-1.56951e-005 0.09824 0.00534525
-0.000654749 0.186032 0.00495732
-0.00104833 0.0773875 0.002888
6.33506e-031 3.42927e-030 -7.17779e-032
-0.0414094 -0.32231 0.002076
5.91132e-031 1.10059e-029 -1.09317e-031
1.01069e-030 5.0088e-030 -8.98543e-032
-0.0278312 -0.190159 0.00370895
-2.85838e-017 -2.42649e-016 5.54042e-018
2.28227e-029 -4.96462e-030 1.59128e-029
-0.017954 -0.183905 0.00219042
-0.0257936 -0.176305 0.00179106
-2.2873e-017 -1.97588e-016 2.92177e-018
0.515085 -0.000291411 -0.000169302
-2.06982e-029 2.58077e-032 -5.01378e-033
-2.15198e-029 1.41265e-032 4.08377e-033
-3.6654e-029 5.06147e-032 6.3226e-033
0.346641 0.000138643 -7.74714e-005
0.348244 -0.00013866 -0.000227433
0.346182 -0.000298188 6.19919e-005
1.45044e-029 -6.46987e-020 9.78124e-020
1.31517e-029 2.43939e-021 -1.21924e-020
2.53382e-017 -1.68855e-020 -1.41642e-030
0.200497 0.748166 -0.0443107
-0.0115939 0.80398 -0.0274336
-0.0173366 0.917771 -0.0841827
0.0358488 0.72074 -0.00442455
0.0913988 0.905713 -0.050637
0.0681972 0.87552 -0.0728833
0.136102 0.847256 -0.0379917
-0.0180071 0.984312 -0.0631308
0.0520954 0.823419 -0.0182533
0.0429844 0.98739 -0.0543597
-7.7528e-029 1.11049e-031 2.51581e-032
-4.5659e-029 8.95667e-032 9.45828e-032
-5.66847e-029 4.52914e-031 -4.72767e-032
0.471355 -0.00387372 7.88321e-005
1.96845e-017 1.04029e-019 -1.00298e-019
3.83677e-019 -4.2755e-022 -4.9947e-022
0.372258 4.83401e-005 -0.00129662
9.05971e-019 -2.45419e-022 3.52533e-030
0.332421 0.000493391 -0.00105366
0.378275 -0.00255893 0.000665795
8.39155e-030 4.88573e-030 -2.5453e-031
-0.393195 -0.239045 0.0121512
2.85811e-030 1.69664e-030 -1.08123e-031
-0.267899 -0.171817 0.0102057
-0.260066 -0.139128 0.00809318
5.72667e-016 3.86182e-016 -2.9227e-017
-0.450635 -0.227663 0.0104065
-0.236956 -0.155581 0.0116024
-0.249741 -0.137368 0.00820479
-0.838276 0.000903561 0.00599589
1.83416e-028 -2.34098e-031 -2.68043e-031
1.36374e-029 -8.82874e-032 -1.70274e-031
-0.837175 0.00515386 0.0029568
-0.554961 0.00273155 0.00279253
-0.499912 -0.000395579 0.00634556
-0.926699 0.00406021 0.00359159
-2.35668e-029 3.35139e-029 6.23612e-029
-0.472009 0.00435328 0.00194393
-0.504436 0.00642646 0.00354734
-3.69355e-029 3.4537e-031 2.17722e-031
-1.35358e-029 2.0913e-031 1.6334e-031
-2.09168e-029 -8.84405e-031 4.24954e-032
-4.55018e-017 2.01736e-018 3.59031e-019
-1.17752e-018 1.86428e-020 3.74207e-020
0.29691 -0.00236116 -0.00160505
-1.61582e-017 4.24615e-019 5.84598e-019
0.274195 -0.0054507 -0.00233614
0.283566 0.00419247 -0.0108402
-8.09777e-029 1.32983e-030 -2.91704e-031
0.380383 -0.00634664 0.000616397
0.318263 -0.00973817 0.00209986
0.34483 -0.0069504 0.000802585
0.52901 -0.00817052 -1.54536e-005
0.546661 -0.00552465 -0.000131764
0.481453 -0.0104227 -0.000534628
-1.77115e-029 -1.70609e-031 2.288e-032
-3.32533e-029 4.37961e-031 -2.08727e-032
5.36096e-017 -2.63062e-018 -3.03888e-019
4.6863e-017 -2.00075e-018 -3.22061e-019
0.278282 -0.00307339 -0.000736173
4.1992e-018 -2.11494e-019 -4.94119e-020
0.286013 -0.00388362 -0.00280849
-6.20075e-029 2.57984e-031 2.5355e-031
0.470988 0.00159189 -0.00069372
-4.12508e-029 1.45321e-031 1.07475e-031
0.288591 -0.00153293 -0.000820566
-9.72598e-017 1.5779e-019 7.01394e-019
0.369344 -0.00304122 -0.00188976
0.300214 -9.88479e-005 -0.00078255
0.493738 -0.00157113 -0.00079601
0.317161 0.000609647 -0.00218947
-1.65886e-029 1.25055e-031 -1.33716e-031
-4.88594e-029 8.05978e-033 -3.19049e-031
-5.68989e-029 3.10553e-031 -2.74577e-031
3.32982e-017 -5.26557e-019 8.29449e-019
-3.58263e-017 6.07043e-019 -7.94743e-019
0.291727 -0.00384521 0.00573177
-2.34014e-017 3.25919e-019 -3.84922e-019
0.303365 -0.00292437 0.00386462
0.303129 -0.00332652 0.00287996
1.41096e-030 -8.18081e-030 4.47723e-031
-0.179901 0.116627 -0.0215642
1.94545e-030 -3.7435e-030 5.72828e-031
0.0745957 0.216923 -0.0288589
-0.0598952 0.0854236 -0.0056366
1.89241e-018 6.96705e-018 1.90519e-020
0.00861876 0.137295 -0.00693562
-0.0679548 0.0433221 -0.00509151
-0.0685151 0.180071 -0.0234134
-0.00401603 0.0768967 -0.00782297
-6.69538e-030 -3.64397e-030 -7.98568e-031
-5.38578e-029 -7.44279e-030 -1.02626e-030
-9.14731e-030 -1.98262e-029 2.7403e-031
0.205257 0.0440399 0.0344739
0.243245 0.0871223 0.0205999
0.256099 0.196659 0.0498239
2.83762e-030 5.25394e-029 -3.2516e-029
5.60867e-017 5.25664e-017 1.24244e-017
-6.97357e-017 -4.49183e-017 -1.2953e-017
-2.17138e-029 -1.47962e-031 3.91137e-032
-1.34799e-017 -2.03791e-029 -7.54081e-020
5.21244e-017 -1.71028e-018 -8.87475e-021
0.308578 -0.00074003 0.00151535
-0.093624 -0.265103 0.00272115
1.62028e-030 3.28813e-030 -5.31781e-032
-0.152384 -0.263894 -0.00470625
3.60583e-030 8.10422e-030 4.92854e-032
-0.060032 -0.137746 0.00368648
-0.127036 -0.27316 -0.000841331
-0.0604715 -0.145755 0.00229903
-0.0838493 -0.152222 0.0016658
9.92175e-018 1.95765e-017 -4.79867e-019
-0.0733027 -0.139466 -0.000103279
-0.287001 -0.324878 -0.0314919
-0.267528 -0.485823 -0.0329871
-0.11847 -0.18408 -0.0160313
-0.220797 -0.281118 -0.0384781
-0.285805 -0.415786 -0.0332273
-0.197431 -0.272931 -0.0256935
-0.223971 -0.367501 -0.040941
-0.133373 -0.206547 -0.0226755
-0.211962 -0.363663 -0.0303293
0.469276 0.0015949 8.60361e-005
-9.7586e-029 -2.64713e-031 3.50913e-031
-4.0025e-029 -1.87412e-031 5.37176e-032
0.482328 0.00209933 -0.000741838
0.306403 0.00243203 -0.000888529
0.289609 0.00240459 0.000640535
0.489312 0.00257874 -0.00105533
4.26549e-029 -8.44965e-030 -1.06141e-028
0.400724 -0.00145191 -0.00158149
0.352509 -0.000377828 -0.000336272
-1.75339e-029 2.61076e-032 1.64845e-032
-4.64524e-029 1.50176e-032 -7.57141e-033
-8.67104e-029 4.46169e-032 4.90877e-032
1.33341e-029 4.7919e-029 8.44437e-029
0.294092 -0.000465842 -0.000211772
6.39172e-017 3.15791e-019 -3.11191e-020
0.322302 0.000647539 0.000453461
-3.02443e-017 -9.89779e-020 2.80059e-020
0.29415 -8.14143e-005 -0.00040042
-2.62602e-029 4.72834e-032 -3.05171e-032
-5.09212e-029 5.4641e-032 -1.08806e-031
0.510877 -0.000580027 0.000258347
-8.79705e-029 1.20014e-031 -2.12367e-031
8.37037e-017 -2.058e-019 4.1208e-019
0.386077 -0.00087456 0.000762695
-6.60315e-017 3.695e-019 -1.67053e-019
0.396754 -0.000712139 0.00196287
3.13532e-017 5.68303e-020 2.06977e-019
0.376417 -0.00225285 0.000649282
0.468343 0.00115783 -0.000621559
-9.73758e-029 3.83997e-032 9.98422e-032
0.537703 0.000107394 -6.57614e-005
0.343584 0.000255489 -0.000356811
0.471353 0.0019964 0.000426493
0.375527 -0.00153318 0.00110735
0.54425 0.00197573 -0.000940462
0.382168 0.000805229 -0.000342217
1.29572e-029 1.25453e-031 -1.00554e-031
-0.346714 -0.00532378 0.00470841
8.39533e-017 9.17074e-019 -3.26061e-018
-0.461602 -0.0048852 0.00482216
-0.752749 -0.0107453 0.00450003
1.24949e-030 -5.56712e-029 3.43723e-030
1.51782e-031 -1.02533e-028 6.16269e-030
-0.00967867 0.630253 -0.0379164
1.51222e-005 0.63495 -0.0386609
-0.0120024 0.438177 -0.0281747
1.35511e-018 -8.40596e-017 5.56795e-018
-0.00785506 0.52006 -0.0324043
0.000651878 0.558093 -0.000591966
0.0123052 0.28693 0.0028029
0.00433991 0.56629 -0.0062511
0.000168624 0.370055 0.000997205
0.00936468 0.450732 0.00188694
0.00347644 0.565695 -0.0035987
0.000381902 0.467775 0.00108892
0.00861139 0.446296 -0.00122196
0.00533841 0.356414 0.00200927
0.00199334 0.488622 -0.00150456
0.00740964 0.270923 0.00654134
0.00186031 0.38915 0.00619085
0.000966778 0.290084 0.00391437
8.49865e-029 1.57816e-030 6.66803e-031
1.42836e-028 2.88683e-030 9.75273e-031
2.55271e-029 2.98365e-031 1.21298e-031
-0.629372 -0.00808844 -0.00360292
-0.59345 -0.00893002 -0.00583216
-0.593194 -0.0100174 -0.00352914
-1.35616e-016 3.34421e-019 -1.85579e-018
-1.60252e-016 -2.95154e-018 -1.34113e-018
-1.52276e-016 -3.13841e-018 -1.83612e-018
7.31602e-031 2.74435e-030 -6.11647e-032
-0.162714 -0.481764 -0.00343535
4.0905e-030 2.01795e-029 1.16041e-031
1.53778e-030 7.47203e-030 -1.3535e-031
-0.0939009 -0.350248 0.00654
4.51e-030 -4.18296e-030 -2.72143e-029
-4.23053e-017 -2.05609e-016 7.19882e-018
-0.0839374 -0.352065 0.00121037