# vtk DataFile Version 2.0 
output.vtk, Created by Freefem++, via gregorio
ASCII
DATASET UNSTRUCTURED_GRID
POINTS 7451 double
-3.79965 2.23652 0.040848
-4.13429 2.05574 0.276253
-4.09122 2.24524 0.070091
-4.01836 2.27766 0.330071
-3.96697 2.14613 0.158551
-3.94543 2.24088 0.0554695
-3.90901 2.25709 0.185459
-4.11275 2.15049 0.173172
-4.07633 2.1667 0.303162
-4.05479 2.26145 0.200081
-4.81817 0.732763 -0.840268
-4.76136 0.37264 -0.736193
-5.12328 0.495929 -0.550642
-4.73872 0.559667 -0.434419
-4.78977 0.552702 -0.788231
-4.97072 0.614346 -0.695455
-4.77845 0.646215 -0.637344
-4.94232 0.434285 -0.643417
-4.75004 0.466153 -0.585306
-4.931 0.527798 -0.49253
-7.58244 -0.891248 -0.453516
-8 -0.559587 0.124298
-7.26059 -0.264226 0.250847
-7.58828 -0.999993 0.00381
-7.79122 -0.725418 -0.164609
-7.42152 -0.577737 -0.101334
-7.58536 -0.94562 -0.224853
-7.6303 -0.411906 0.187573
-7.79414 -0.77979 0.064054
-7.42444 -0.632109 0.127328
-5.46564 0.048234 0.998836
-5.51396 -0.351144 0.936321
-5.02851 -0.125769 0.598961
-5.56665 -0.148801 0.504295
-5.4898 -0.151455 0.967578
-5.24708 -0.0387675 0.798898
-5.51614 -0.0502835 0.751565
-5.27124 -0.238457 0.767641
-5.5403 -0.249972 0.720308
-5.29758 -0.137285 0.551628
-4.20269 -2.80441 0.102764
-3.63085 -2.57461 -0.287529
-4.13183 -2.29387 0.255347
-4.14432 -2.47254 -0.273935
-3.91677 -2.68951 -0.0923825
-4.16726 -2.54914 0.179055
-4.1735 -2.63848 -0.0855855
-3.88134 -2.43424 -0.016091
-3.88759 -2.52358 -0.280732
-4.13807 -2.38321 -0.009294
-6.25062 -0.085247 0.575431
-6.51584 -0.423084 -0.15939
-6.46019 0.447486 0.293263
-6.75561 -0.174737 0.413139
-6.38323 -0.254165 0.20802
-6.35541 0.181119 0.434347
-6.88822 -0.343655 0.0457285
-6.86039 0.09163 0.272055
-6.48801 0.012201 0.0669365
-4.88162 0.371746 0.655425
-4.51246 -0.112716 0.623981
-4.65723 0.09269 0.995695
-4.69704 0.129515 0.639703
-4.95507 0.122989 0.627193
-4.76942 0.232218 0.82556
-4.77049 -0.119243 0.611471
-4.58484 -0.010013 0.809838
-4.84287 -0.0165395 0.797328
-3.75099 1.20677 0.090288
-3.64118 0.745776 0.266863
-4.09568 0.790235 0.315934
-3.78936 1.07086 0.69071
-3.69609 0.976272 0.178575
-3.92333 0.998502 0.203111
-3.77017 1.13882 0.390499
-3.86843 0.768006 0.291399
-3.71527 0.908319 0.478787
-3.94252 0.930549 0.503322
-2.18572 0.40145 0.915881
-1.75478 0.245881 0.526965
-1.94554 -0.013967 0.999902
-1.76886 0.356252 0.93439
-1.97025 0.323665 0.721423
-2.06563 0.193741 0.957891
-1.97729 0.378851 0.925135
-1.85016 0.115957 0.763433
-1.76182 0.301067 0.730678
-1.8572 0.171143 0.967146
-5.06116 0.824959 0.710182
-4.88551 0.773989 0.80113
-4.92155 0.772883 0.437198
-5.01596 0.602336 0.857802
-4.97333 0.799474 0.755656
-4.99135 0.798921 0.57369
-5.03856 0.713647 0.783992
-4.90353 0.773436 0.619164
-4.95074 0.688163 0.829466
-4.96876 0.687609 0.6475
-2.34262 2.51752 0.051733
-2.4672 2.85727 -0.311185
-2.29554 2.81673 0.086134
-2.65762 2.74748 0.16058
-2.40491 2.6874 -0.129726
-2.31908 2.66712 0.0689335
-2.50012 2.6325 0.106157
-2.38137 2.837 -0.112526
-2.56241 2.80238 -0.0753025
-2.47658 2.7821 0.123357
-3.50303 -3.76846 -0.636668
-3.49422 -3.29308 -1.15018
-3.31427 -3.71149 -1.25136
-2.90724 -3.34218 -0.858121
-3.49863 -3.53077 -0.893424
-3.40865 -3.73997 -0.944014
-3.20514 -3.55532 -0.747394
-3.40425 -3.50228 -1.20077
-3.20073 -3.31763 -1.00415
-3.11076 -3.52683 -1.05474
-4.0054 2.49156 -0.125899
-3.5956 2.50054 -0.194198
-3.83412 2.54803 0.0159
-3.8005 2.49605 -0.160049
-3.90253 2.36404 -0.0425255
-3.91976 2.5198 -0.0549995
-3.69763 2.36853 -0.076675
-3.71486 2.52428 -0.089149
-3.81689 2.39228 0.028374
-3.73452 -3.68531 -1.05781
-3.52439 -3.6984 -1.15459
-3.61437 -3.4892 -1.104
-3.61877 -3.72688 -0.84724
-6.37864 0.944563 0.328331
-6.25891 0.813305 0.581838
-6.65332 0.772267 0.635298
-6.31878 0.878934 0.455085
-6.41941 0.696025 0.310797
-6.51598 0.858415 0.481815
-6.35955 0.630395 0.43755
-6.45612 0.792786 0.608568
-6.55675 0.609877 0.46428
1.62066 -0.841518 -0.540229
1.89324 0.238579 -0.195511
2.01627 -0.690819 -0.723027
2.25185 -0.211859 0.261412
1.75695 -0.30147 -0.36787
1.81846 -0.766169 -0.631628
1.93625 -0.526689 -0.139408
1.95475 -0.22612 -0.459269
2.07254 0.01336 0.0329505
2.13406 -0.451339 -0.230807
-2.56949 2.06853 0.305158
-2.91403 1.60744 0.564909
-3.02709 2.08175 0.021586
-2.87501 2.07662 0.630995
-2.74176 1.83799 0.435033
-2.79829 2.07514 0.163372
-2.72225 2.07258 0.468077
-2.97056 1.8446 0.293247
-2.89452 1.84203 0.597952
-2.95105 2.07919 0.32629
-5.39985 0.358755 0.933432
-5.34934 0.453264 0.543553
-5.56264 0.558471 0.829524
-5.70805 0.297641 0.954678
-5.37459 0.40601 0.738492
-5.48124 0.458613 0.881478
-5.55395 0.328198 0.944055
-5.45599 0.505868 0.686538
-5.52869 0.375452 0.749116
-5.63535 0.428056 0.892101
-4.17913 0.323834 -0.696515
-4.36183 0.516245 -0.417662
-4.60784 0.019305 -0.528365
-4.46586 0.364911 -0.72315
-4.27048 0.42004 -0.557088
-4.39349 0.17157 -0.61244
-4.3225 0.344372 -0.709832
-4.48483 0.267775 -0.473013
-4.41384 0.440578 -0.570406
-4.53685 0.192108 -0.625757
-5.9377 0.438799 -0.558905
-5.87927 0.529091 -0.848565
-6.25926 0.555743 -0.831354
-6.07929 0.245277 -0.969453
-5.90849 0.483945 -0.703735
-6.09848 0.497271 -0.695129
-6.00849 0.342038 -0.764179
-6.06927 0.542417 -0.839959
-5.97928 0.387184 -0.909009
-6.16928 0.40051 -0.900404
-3.64743 2.72944 0.180305
-3.74077 2.63873 0.0981025
-3.72354 2.48298 0.110576
-3.62151 2.61499 -0.0069465
-3.98168 0.388062 0.141859
-3.76543 0.320245 0.603448
-3.81143 0.566919 0.204361
-3.70331 0.533011 0.435156
-4.03868 0.589149 0.228897
-3.87356 0.354154 0.372653
-3.93055 0.55524 0.459691
-6.17342 0.027823 -0.593282
-6.59748 0.255766 -0.966739
-6.35964 0.547779 -0.240473
-6.21634 0.291783 -0.712318
-6.42837 0.405755 -0.899047
-6.30945 0.551761 -0.535914
-6.38545 0.141794 -0.78001
-6.26653 0.287801 -0.416878
-6.47856 0.401772 -0.603606
-5.98474 0.742767 -0.66955
-5.96122 0.590783 -0.614227
-6.122 0.649255 -0.750452
-5.93201 0.635929 -0.759057
-5.86659 0.345457 -0.129882
-5.96054 -0.099592 -0.035866
-6.02 0.18664 -0.361582
-6.11312 0.446618 -0.185177
-5.91357 0.122933 -0.082874
-6.06698 -0.0358845 -0.314574
-6.16009 0.224094 -0.13817
-1.10421 0.363269 -0.931684
-0.773878 0.737644 -0.67519
-0.520452 0.269543 -0.962988
-0.384634 0.008888 -0.353445
-0.939043 0.550457 -0.803437
-0.812329 0.316406 -0.947336
-0.74442 0.186079 -0.642564
-0.647165 0.503594 -0.819089
-0.579256 0.373266 -0.514317
-0.452543 0.139215 -0.658216
-2.85287 -3.00249 -1.21636
-3.23054 -2.92385 -1.196
-3.06719 -3.3306 -1.25351
-2.88006 -3.17233 -1.03724
-3.06889 -3.13301 -1.02706
-2.98722 -3.33639 -1.05581
-3.0417 -2.96317 -1.20618
-2.96003 -3.16654 -1.23493
-3.14886 -3.12722 -1.22475
-3.38618 -2.05134 -0.098565
-2.37808 -2.56123 -0.134541
-2.49252 -2.47812 0.422472
-2.41131 -1.89586 0.044632
-2.88213 -2.30628 -0.116553
-2.93935 -2.26473 0.161954
-2.89875 -1.9736 -0.0269665
-2.4353 -2.51967 0.143966
-2.39469 -2.22855 -0.0449545
-2.45192 -2.18699 0.233552
-1.85713 -0.413967 0.42138
-1.65927 -0.390905 0.920431
-1.2503 -0.077569 0.384148
-1.80595 -0.084043 0.474172
-1.70702 -0.072512 0.723698
-1.50254 0.084156 0.455557
-1.7582 -0.402436 0.670905
-1.55371 -0.245768 0.402764
-1.45478 -0.234237 0.652289
-2.09043 2.55218 0.167395
-2.0659 2.66009 -0.048555
-2.19298 2.68445 0.126765
-2.18072 2.73841 0.0187895
-2.07816 2.60614 0.05942
-2.21652 2.53485 0.109564
-2.20426 2.58881 0.001589
-4.01665 2.44382 0.136481
-3.97233 2.67361 0.084512
-3.92539 2.49592 0.0761905
-3.99449 2.55872 0.110496
-4.01103 2.46769 0.005291
-3.90323 2.61082 0.050206
-3.98887 2.58259 -0.0206935
-3.92754 1.80484 -0.220103
-4.28096 1.83407 -0.225431
-4.13592 1.88983 -0.461486
-4.146 2.03152 -0.278406
-4.10425 1.81945 -0.222767
-4.03173 1.84734 -0.340795
-4.03677 1.91818 -0.249254
-4.20844 1.86195 -0.343458
-4.21348 1.9328 -0.251918
-4.14096 1.96068 -0.369946
-4.04038 -5 0.949212
-3.62468 -5 1.26221
-3.84559 -4.54287 1.07336
-3.71487 -5 0.728948
-3.83253 -5 1.10571
-3.94299 -4.77144 1.01129
-3.87763 -5 0.83908
-3.73513 -4.77144 1.16779
-3.66977 -5 0.99558
-3.78023 -4.77144 0.901156
-1.37334 0.812082 -0.583544
-0.975724 0.961208 -0.275823
-1.19336 -0.166381 -0.273753
-1.17453 0.886645 -0.429683
-1.07361 0.774863 -0.629367
-1.28335 0.32285 -0.428648
-0.874801 0.849426 -0.475506
-1.08454 0.397413 -0.274788
-0.983618 0.285631 -0.474471
-3.83515 -1.82017 -0.741539
-3.34976 -1.58414 -0.592596
-3.50394 -2.07825 -1.02313
-3.59245 -1.70215 -0.667067
-3.66955 -1.94921 -0.882335
-3.61067 -1.93575 -0.420052
-3.42685 -1.83119 -0.807863
-3.36797 -1.81774 -0.345581
-3.44506 -2.06479 -0.560848
-2.72946 0.769161 0.094533
-2.75119 0.681139 -0.326037
-2.98528 1.02631 -0.281501
-3.08113 0.734324 -0.34324
-2.74032 0.72515 -0.115752
-2.85737 0.897737 -0.093484
-2.90529 0.751742 -0.124353
-2.86823 0.853726 -0.303769
-2.91616 0.707731 -0.334639
-3.03321 0.880319 -0.31237
-2.94023 -2.47675 -0.674772
-3.14499 -2.03044 -0.633684
-3.22209 -2.2775 -0.848951
-3.16321 -2.26404 -0.386669
-3.03914 -4.25341 0.579285
-2.64287 -3.80807 0.20828
-2.47531 -4.18593 0.714333
-2.97264 -3.41482 0.618231
-2.84101 -4.03074 0.393783
-2.75723 -4.21967 0.646809
-3.00589 -3.83412 0.598758
-2.55909 -3.997 0.461307
-2.80776 -3.61144 0.413255
-2.72397 -3.80037 0.666282
-2.39684 -0.595487 -0.803365
-1.98884 -0.54749 -0.836812
-2.24172 -0.466498 -0.098067
-2.21295 -0.01831 -0.514797
-2.19284 -0.571489 -0.820088
-2.31928 -0.530992 -0.450716
-2.3049 -0.306899 -0.659081
-2.11528 -0.506994 -0.46744
-2.1009 -0.2829 -0.675804
-2.22734 -0.242404 -0.306432
-3.36239 -4.55484 -1.31864
-3.11171 -4.25429 -0.873787
-2.86199 -4.55394 -1.36046
-2.79118 -5 -0.96439
-3.23705 -4.40456 -1.09621
-3.11219 -4.55439 -1.33955
-3.07678 -4.77742 -1.14151
-2.98685 -4.40411 -1.11712
-2.95144 -4.62714 -0.919088
-2.82658 -4.77697 -1.16243
-3.88203 2.65205 -0.416886
-3.48121 2.84727 -0.340672
-3.82273 3 -0.474998
-3.72541 2.76868 -0.627028
-3.68162 2.74966 -0.378779
-3.85238 2.82603 -0.445942
-3.80372 2.71037 -0.521957
-3.65197 2.92364 -0.407835
-3.60331 2.80798 -0.48385
-3.77407 2.88434 -0.551013
[...]
POINT_DATA 7451
 
FIELD FieldData 2
velocity 3 7451 double
-0.122406 -0.347364 0.00955948
1.5629e-030 3.52892e-030 -1.9543e-031
4.53184e-031 1.23603e-030 -5.77259e-032
1.30718e-030 3.51274e-030 -1.78693e-031
-0.0833762 -0.203589 0.0114672
-0.07259 -0.199727 0.00927828
-0.0802828 -0.232298 0.0123212
-1.87373e-018 -4.54049e-018 3.15687e-019
5.66785e-018 1.41115e-017 -1.10903e-018
1.90825e-029 -8.18982e-030 -4.44939e-030
9.04912e-030 3.01424e-030 -2.05745e-031
-0.411491 -0.109313 0.00108488
-0.627527 -0.142637 0.00751397
-0.707504 -0.230954 0.0062147
-0.227359 -0.0769836 0.00706695
-0.306741 -0.0932158 0.00989655
-0.405977 -0.146981 0.0094315
-0.535778 -0.134369 0.00703035
-0.593526 -0.174661 0.00538005
-0.677087 -0.192755 0.00850504
9.71417e-029 -3.00519e-031 2.80074e-032
-0.848838 0.00732854 -0.000628249
-1.10713 4.74045e-005 -0.000606185
5.60915e-029 -2.25995e-031 5.40568e-032
-0.552851 0.00344181 7.6649e-005
-0.837054 1.0637e-005 -0.00253509
-1.34555e-016 2.50559e-019 -3.1589e-019
-1.00951 0.00128833 -7.75196e-005
-0.480047 0.00635484 -0.00080153
-0.743258 0.001925 -0.000178462
3.30512e-029 3.419e-030 5.87818e-032
2.17596e-029 1.39051e-030 2.82648e-031
-0.701464 -0.105002 -0.0137303
-0.88656 -0.0623684 -0.00507777
-1.05896e-016 -6.65987e-018 -1.02945e-018
-0.423454 -0.0483012 -0.00391486
-0.5272 -0.0336128 -0.00349853
-0.404193 -0.0313933 -0.00758653
-0.506314 -0.0233004 -0.00490216
-0.799664 -0.085986 -0.00848359
-4.28037e-030 -6.55128e-029 1.95185e-030
0.0262734 0.424751 0.00292079
-4.67013e-030 -7.77289e-029 2.47378e-030
-8.19726e-031 -9.72871e-030 6.15001e-033
0.0237103 0.289583 -0.00369012
-6.34564e-017 -7.1293e-016 1.83984e-017
-4.00567e-018 -4.04407e-017 5.79483e-019
0.0268785 0.343565 -0.00570825
0.0220881 0.25254 0.000425501
-5.76175e-017 -6.1707e-016 1.08435e-017
-0.832492 -0.0163623 -0.00239532
-1.00548 -0.00961457 -0.0022453
-0.905173 -0.012992 -0.00090988
-1.01267 -0.00261926 -0.00099042
-1.13452 -0.0173361 -0.00318175
-0.987032 -0.017233 -0.00228673
-1.11839 -0.0046845 -0.00386649
-1.17253 -0.00250585 -0.000474996
-1.27283 -0.0170231 -0.00155014
-0.564551 -0.186738 0.00460013
-0.571045 -0.101946 -0.0202118
1.88088e-029 5.1536e-030 1.98647e-031
-0.624729 -0.165514 -0.00820169
-0.690222 -0.154643 -0.00384386
-0.310022 -0.109001 0.0031803
-0.635994 -0.112108 -0.0188655
-0.342556 -0.093222 -0.0102523
-0.390582 -0.0842419 -0.00826129
-0.430549 -0.454084 -0.0225818
-0.467161 -0.26496 -0.0500481
-0.606669 -0.336367 -0.0147553
-0.23969 -0.30109 -0.000527886
-0.465638 -0.385406 -0.0392654
-0.520234 -0.397953 -0.020134
-0.394282 -0.417552 -0.0160966
-0.554594 -0.30956 -0.0322686
-0.387245 -0.327696 -0.0242784
-0.423531 -0.334754 -0.00757932
-1.7247e-029 -6.48486e-030 1.15124e-030
0.348995 0.0525256 -0.00646059
-2.07154e-029 -6.19531e-030 -3.77044e-031
-4.38047e-030 -2.28701e-031 2.43486e-032
0.188285 0.029659 -0.00604274
6.0344e-017 5.49403e-018 2.29444e-018
3.22333e-018 2.21474e-019 -2.64086e-020
0.213395 0.0173154 -0.00134132
0.199172 0.0112362 0.00106768
-6.92973e-017 -6.66203e-019 -8.60621e-019
2.50074e-017 1.16259e-017 -7.03158e-019
2.77084e-030 1.26383e-030 -5.34891e-032
-0.50918 -0.210653 0.00889315
2.95987e-030 1.21044e-030 -5.56873e-032
1.25091e-017 6.26937e-018 -3.92135e-019
-0.286856 -0.126843 0.0067098
9.84212e-017 4.42124e-017 -3.59187e-018
-0.286993 -0.138491 0.00774489
1.52483e-016 7.80534e-017 -3.42933e-018
-0.316538 -0.135172 0.00582494
-0.0331866 -0.236303 -0.0136712
-0.0204059 -0.251295 -0.00887882
-0.0125863 -0.235762 -0.00703531
-0.0522972 -0.498553 -0.0153808
-0.0289709 -0.26639 -0.0112674
-0.0231458 -0.237131 -0.0105295
-0.0455701 -0.37814 -0.0164752
-0.0187715 -0.268904 -0.00953291
-0.038129 -0.394411 -0.01252
-0.0321036 -0.38268 -0.011843
0.0112719 0.270137 0.00812805
-6.51616e-031 -2.08395e-029 -1.05143e-030
-3.25641e-031 -1.59693e-029 -9.0233e-031
-0.00173947 0.226969 0.0128867
0.00638814 0.145032 0.00809101
0.00552584 0.142329 0.00811012
0.00472921 0.276436 0.0117332
2.21834e-029 2.16869e-030 6.44376e-029
0.00221274 0.135823 0.00920322
0.00111272 0.117084 0.00830256
9.65552e-031 3.5573e-030 -1.0054e-031
-0.0906168 -0.370906 0.00390399
-0.0484958 -0.22946 0.00500812
-0.0580585 -0.233197 0.00629591
-0.0603116 -0.194118 0.00620354
-0.0276223 -0.117204 0.00341991
-0.110399 -0.371708 0.005852
-0.0760855 -0.329473 0.00569048
-0.0824155 -0.287036 0.00760456
-2.62901e-031 -4.67903e-030 -2.2905e-031
-3.6265e-018 -6.94164e-017 -5.1552e-018
3.5447e-018 6.20349e-017 4.5144e-018
0.00766109 0.137276 0.00668788
1.03102e-029 1.76115e-031 2.03149e-033
1.36599e-029 2.28206e-031 1.60266e-032
1.78206e-029 1.89648e-031 4.3516e-032
6.96062e-017 1.53926e-018 8.41616e-020
-0.521218 -0.012825 -0.000499149
-4.97815e-030 -4.51524e-029 -2.28071e-029
-0.511698 -0.00650429 -0.000657475
8.09781e-017 -1.84378e-019 1.71897e-019
-0.520749 -0.00587015 -0.00102837
-1.50466e-028 3.79185e-031 -7.26304e-032
0.486028 0.000577468 0.00072146
-5.56399e-029 3.79023e-032 -1.31059e-031
0.473515 -0.00219381 0.00130654
0.416674 -0.00126258 0.000283987
-6.68302e-017 3.39967e-020 -3.04823e-019
0.376026 -0.000217907 0.00136144
0.394192 0.000707219 0.000859457
0.536285 -0.00104375 0.00163442
0.397578 -0.00115209 0.00174047
-0.0804693 -0.330273 -0.0291595
-0.118925 -0.344874 -0.0345506
-0.170983 -0.533755 -0.0263637
-0.0912101 -0.414851 -0.0217183
-0.107232 -0.364935 -0.0349892
-0.134858 -0.48253 -0.0340356
-0.0939911 -0.403113 -0.0300412
-0.178701 -0.519303 -0.0382713
-0.108598 -0.387188 -0.0286577
-0.152412 -0.552777 -0.0317435
3.11857e-030 4.1202e-031 -6.84254e-032
-0.669689 -0.123906 0.0100177
6.74404e-030 5.40737e-031 -1.18409e-031
2.99388e-029 1.9995e-030 -1.53579e-031
-0.377333 -0.0499795 0.0102885
-9.80613e-017 -7.75988e-018 3.41349e-018
1.36442e-016 6.17731e-018 -3.95678e-018
-0.364904 -0.0442114 0.00890162
-0.380848 -0.0311395 0.006997
-2.22465e-017 -7.02752e-019 7.76845e-019
-0.40415 -0.101759 -0.014555
-0.687565 -0.233584 -0.0113954
-0.729694 -0.112951 -0.00681692
-0.409458 -0.118072 -0.0050996
-0.567673 -0.170064 -0.0140731
-0.583471 -0.118344 -0.0114881
-0.411406 -0.1142 -0.00959876
-0.744244 -0.175099 -0.0115425
-0.579355 -0.181698 -0.00658357
-0.594362 -0.127525 -0.00634623
-0.628091 -0.0135717 0.00194663
3.35516e-030 3.93097e-032 -6.99121e-033
2.98859e-029 3.64078e-031 -1.53924e-031
1.37603e-029 1.85098e-031 -2.79856e-032
-0.338485 -0.0033541 0.00130335
-0.336019 -0.00629308 0.00284121
-0.366618 -0.00423628 0.0020339
-2.40114e-016 -1.90603e-018 2.11247e-018
-1.15757e-016 -2.38149e-019 1.0498e-018
-1.10536e-029 -2.14246e-029 4.80967e-029
-0.0587742 -0.397246 0.00548696
-0.05573 -0.320601 0.0056658
-0.0866449 -0.369339 0.00673352
-0.0793573 -0.412816 0.0041731
-0.742524 -0.153882 -0.0442587
-0.409551 -0.0380292 -0.0211397
-0.605069 -0.204904 -0.0499298
-0.464606 -0.144818 -0.0403353
-0.69578 -0.263642 -0.0315283
-0.615603 -0.0967055 -0.0374819
-0.547858 -0.209338 -0.0228139
-0.812902 -0.0103375 0.000549602
-3.67411e-017 4.33618e-020 8.29338e-020
-0.813288 -0.00912001 0.0035244
-0.508183 -0.00734486 0.00301656
-2.50392e-029 -3.06067e-029 6.03704e-029
-0.508249 -0.00582096 0.00457169
-0.461716 -0.00797899 0.00171952
-0.944276 -0.0126589 0.00306957
-0.591979 -0.00286406 0.00303932
5.42229e-030 9.46687e-032 -8.64772e-033
-0.343076 -0.00644158 0.00203976
-7.7444e-017 -2.6418e-018 1.73534e-018
-1.02279e-016 -8.3763e-019 6.59508e-019
-1.11589 -0.0514801 0.00290405
-1.25051 -0.0418872 -0.00321212
-1.06245 -0.0266638 0.000709046
-0.980913 -0.0224894 0.00351555
-1.24845 -0.0508088 0.000229958
-1.14112 -0.0263378 -0.00144763
-1.18959 -0.0274885 0.001485
1.98703e-017 -1.5263e-019 -3.14533e-019
-4.90796e-029 4.7242e-031 4.77253e-031
-1.81959e-029 5.46801e-032 9.49998e-032
0.477137 -0.00459355 -0.000868387
-3.05689e-017 2.81126e-019 4.44475e-019
1.35174e-029 -3.24386e-029 9.80578e-029
0.291361 -0.00294979 -0.00292336
-3.14952e-017 1.03894e-019 3.21099e-019
0.326031 -0.00364998 -0.00232376
0.294437 9.34251e-005 -0.00200397
7.76712e-032 -7.26649e-030 -5.67476e-031
-3.25047e-031 -2.23337e-029 -1.343e-030
-6.0053e-033 -2.69006e-030 -2.01471e-031
-0.00125966 0.119351 0.00925429
0.00198507 0.126317 0.0100534
3.59445e-005 0.115144 0.00808627
-7.35604e-019 -5.87011e-017 -5.7129e-018
-7.85984e-020 2.68697e-017 2.41966e-018
-1.28375e-018 -5.68327e-017 -5.19419e-018
0.0216804 0.702424 -0.00725486
-0.025406 0.509154 -0.00158808
-0.0278796 0.721208 -0.0368709
-0.0280148 0.65647 -0.0182419
-0.0072483 0.745937 -0.0044247
-0.00378128 0.904754 -0.0259108
-0.00647137 0.849784 -0.0156596
-0.0279912 0.666633 -0.0160782
-0.0268878 0.584292 -0.00732552
-0.0293562 0.718292 -0.0290904
0.366872 0.162391 0.0242662
-2.65997e-029 -1.73287e-030 -1.84335e-031
0.456626 0.0153345 -0.00239093
0.408971 0.106212 -0.000233569
0.246514 0.00769067 -0.000863274
0.422919 0.0334856 -0.00194939
0.195471 0.00532882 0.00905945
0.412838 0.0529588 -0.00126438
0.268437 0.0010974 -0.00309934
-1.95941e-018 -2.71351e-017 -1.21906e-018
1.10652e-031 1.25578e-030 6.13965e-032
-0.00755877 -0.120043 -0.00450391
-0.00808565 -0.11499 -0.00399565
-4.1528e-018 -5.20259e-017 -2.21241e-018
-0.0165994 -0.129617 -0.0074812
-0.0152788 -0.121706 -0.00785955
-7.42678e-018 -3.00545e-017 1.13311e-018
2.84224e-031 1.80465e-030 -3.85595e-032
-0.0311888 -0.133261 0.00426188
1.24866e-017 6.63487e-017 -1.63668e-018
2.05069e-029 -6.74851e-030 -1.21257e-031
-0.0211765 -0.130873 0.00192765
2.18056e-017 1.18436e-016 -2.52554e-018
-0.183938 -0.295208 0.00807387
1.47982e-030 2.06858e-030 -1.15066e-031
6.97233e-031 1.11888e-030 -5.67495e-032
5.2332e-031 9.10002e-031 -4.76431e-032
-0.112939 -0.170025 0.00955862
-0.103171 -0.164909 0.00839881
-0.100081 -0.169743 0.00869694
-5.1461e-017 -7.76549e-017 5.77052e-018
-2.86323e-016 -4.54527e-016 3.7886e-017
-1.97679e-016 -3.32265e-016 2.31971e-017
-1.34128e-031 -4.04739e-030 1.72432e-031
-2.07667e-031 -1.18448e-029 5.5114e-031
-6.40791e-031 -2.02687e-029 1.10782e-030
0.0101478 0.408954 -0.0140095
-3.59023e-018 -1.62686e-016 7.6437e-018
-5.83592e-019 -1.84878e-017 9.64722e-019
0.00655341 0.243675 -0.00916469
8.97883e-019 3.50994e-017 -7.0535e-018
0.00604481 0.301755 -0.0138596
0.00903881 0.294015 -0.0152277
-5.67078e-029 -4.46438e-032 1.27918e-030
-5.95667e-029 3.88635e-031 6.44374e-031
0.48081 -0.0116931 9.02553e-005
2.52955e-017 3.33405e-020 -6.41205e-019
-2.75159e-017 1.56963e-019 6.23529e-019
0.384121 -0.00321822 -0.00827729
-6.25484e-017 5.44073e-019 6.15941e-019
0.420585 -0.00188455 -0.00598182
0.370572 -0.00556206 -0.00333171
5.96812e-020 8.95885e-019 4.28327e-020
0.00721353 0.400506 0.0160848
-2.18995e-030 -6.06773e-029 -2.07947e-030
0.00828262 0.218676 0.0103896
-4.33461e-018 -7.15006e-017 -9.29765e-018
0.0196628 0.389406 0.00840818
0.00757675 0.187034 0.0122725
0.0148914 0.581312 0.00781938
0.0158505 0.379629 0.0135276
0.0198987 -0.0557092 -0.0512785
0.0190652 -0.011026 -0.0341154
-0.128931 -0.209145 -0.0357077
-0.135677 -0.100898 -0.04742
0.0177369 -0.0441205 -0.0474555
-0.0621204 -0.159538 -0.0468823
-0.0629675 -0.102439 -0.0565692
-0.0456147 -0.0932636 -0.0323018
-0.0515549 -0.0538042 -0.0412474
-0.126481 -0.158497 -0.0421264
-0.00170865 0.364706 0.0167059
0.00693932 0.410526 0.0168791
0.00727418 0.225918 0.013539
0.00912788 0.572434 0.0101254
0.000686787 0.674811 -0.0295853
-0.0160391 0.673867 -0.0165623
-0.0174118 0.540034 -0.0317832
-0.000689211 0.74863 -0.0436572
-0.00832437 0.724728 -0.0233258
-0.00978611 0.663002 -0.0332589
0.000341211 0.712441 -0.0372586
-0.0189114 0.65347 -0.0249325
-0.0104007 0.757212 -0.0275334
-0.012936 0.677767 -0.0388375
1.78194e-017 5.37618e-017 3.74001e-018
5.69414e-017 1.41986e-018 1.0458e-019
0.401891 0.440273 -0.021191
0.302037 0.106962 -0.026086
1.38975e-029 3.74747e-029 4.2388e-029
0.265769 0.292646 -0.0148959
0.201645 0.111919 -0.0180341
0.299551 0.167717 -0.0169664
0.231641 0.057166 -0.0124688
0.385092 0.250014 -0.0292852
7.98719e-019 2.09637e-017 1.62514e-018
0.00199253 0.208106 0.00810633
1.92716e-031 -1.35104e-029 -4.96376e-031
-0.00166759 0.15519 0.00253652
0.00229669 0.0992327 0.00568608
1.31562e-018 3.30221e-017 4.36704e-018
0.000579084 0.0889087 0.00321613
-3.81885e-005 0.0990887 0.00530771
-0.000645563 0.185387 0.00457123
-0.00104484 0.0779091 0.00278931
6.32723e-031 3.4218e-030 -7.11779e-032
-0.0413853 -0.321628 0.00193389
5.88741e-031 1.09723e-029 -1.0481e-031
1.01006e-030 5.00232e-030 -8.89898e-032
-0.027794 -0.189881 0.00365622
-2.85404e-017 -2.42441e-016 5.44104e-018
2.28106e-029 -4.96e-030 1.59036e-029
-0.0179411 -0.183659 0.0020849
-0.0257647 -0.176216 0.00174406
-2.28435e-017 -1.97593e-016 2.84091e-018
0.517206 -0.000287672 -0.000176881
-2.07452e-029 2.59635e-032 -4.62657e-033
-2.15695e-029 1.36758e-032 4.14585e-033
-3.67419e-029 5.05016e-032 6.56949e-033
0.347627 0.000137398 -8.52349e-005
0.349246 -0.000132945 -0.000229027
0.347181 -0.000301364 6.17313e-005
1.4534e-029 -6.58539e-020 -1.07439e-029
1.31792e-029 3.5481e-021 -1.1446e-020
2.53927e-017 6.85644e-029 -1.41573e-030
0.201878 0.751671 -0.046131
-0.0113368 0.79346 -0.0291509
-0.0171862 0.931658 -0.0884026
0.0360369 0.711026 -0.00568943
0.0919737 0.900097 -0.0533459
0.0689316 0.884306 -0.0764622
0.136524 0.842834 -0.0398434
-0.0177451 0.980079 -0.0665421
0.0523986 0.812754 -0.0198744
0.0433784 0.984295 -0.0575495
-7.77346e-029 1.1187e-031 2.25834e-032
-4.57671e-029 8.76711e-032 8.98422e-032
-5.68326e-029 4.55819e-031 -5.2494e-032
0.473043 -0.00386923 0.000132286
1.97353e-017 -5.78434e-023 -9.84151e-020
1.96727e-017 -4.48079e-022 -4.70382e-022
0.373391 4.77023e-005 -0.00127175
9.0832e-019 -2.46287e-022 -6.98796e-022
0.333343 0.000519846 -0.00100694
0.379429 -0.00258359 0.000706691
8.41205e-030 4.90136e-030 -2.55071e-031
-0.394527 -0.239877 0.0119315
2.86461e-030 1.70063e-030 -1.07645e-031
-0.268678 -0.172374 0.0101718
-0.260737 -0.139578 0.0081165
5.74113e-016 3.87185e-016 -2.92422e-017
-0.452035 -0.228544 0.0103268
-0.237621 -0.15598 0.0115346
-0.25038 -0.137759 0.00819304
-0.841061 0.000939809 0.00602888
1.83953e-028 -2.38956e-031 -2.70048e-031
1.36705e-029 -8.92088e-032 -1.70905e-031
-0.83999 0.00520388 0.00298254
-0.556625 0.0027815 0.00281761
-0.501303 -0.000368913 0.0063739
-0.929904 0.00410722 0.00362367
-2.36215e-029 3.34995e-029 6.23319e-029
-0.473413 0.00439717 0.00197445
-0.505888 0.00647071 0.00357274
-3.70073e-029 3.28898e-031 1.97411e-031
-1.35541e-029 1.95789e-031 1.57262e-031
-2.09382e-029 -9.17286e-031 8.12645e-033
-4.55565e-017 1.99227e-018 3.28872e-019
-1.17866e-018 1.74635e-020 3.5587e-020
0.297557 -0.00215114 -0.00140076
-1.61674e-017 4.06427e-019 5.64837e-019
0.27469 -0.00522245 -0.00227756
0.283989 0.00458472 -0.0104598
-8.12051e-029 1.34423e-030 -3.0615e-031
0.381589 -0.00640875 0.000700909
0.319274 -0.00984188 0.0021515
0.345907 -0.00699114 0.000827464
0.531 -0.0083726 7.72133e-005
0.548769 -0.00563322 -0.000102578
0.48328 -0.0105206 -0.000491023
-1.77473e-029 -2.05604e-031 2.80023e-032
-3.3321e-029 4.18716e-031 -2.08723e-032
5.36734e-017 -2.57243e-018 -3.01741e-019
4.69423e-017 -1.94806e-018 -4.42753e-019
0.278902 -0.00270012 -0.000746557
4.20481e-018 -2.08545e-019 -4.89565e-020
0.286692 -0.00362947 -0.00279581
-6.21571e-029 2.63562e-031 2.53788e-031
0.472692 0.00157779 -0.000702625
-4.13458e-029 1.47222e-031 1.07208e-031
0.289357 -0.00155017 -0.000826783
-9.74749e-017 1.64005e-019 7.00657e-019
0.370378 -0.00307552 -0.0018817
0.301009 -0.000112039 -0.000781953
0.495539 -0.00160166 -0.000800662
0.318024 0.000597966 -0.00218562
-1.66231e-029 1.2561e-031 -1.33921e-031
-4.89711e-029 7.50712e-033 -3.19817e-031
-5.70285e-029 3.10578e-031 -2.75641e-031
3.33631e-017 -5.277e-019 8.30189e-019
-3.58949e-017 6.07895e-019 -7.95974e-019
0.292495 -0.00386052 0.00574087
-2.34478e-017 3.25796e-019 -3.85368e-019
0.304182 -0.00292918 0.00386844
0.303932 -0.00332754 0.00288813
1.41172e-030 -8.18989e-030 4.51011e-031
-0.180488 0.117226 -0.0216761
1.95085e-030 -3.75189e-030 5.76489e-031
0.0748816 0.216767 -0.0291689
-0.0600517 0.0856222 -0.00565752
-1.36351e-017 -6.15406e-018 2.2811e-019
0.00871496 0.137598 -0.00697583
-0.0681619 0.0434621 -0.00511351
-0.0687422 0.18042 -0.0236325
-0.00400217 0.0771092 -0.00786742
-6.70183e-030 -3.70706e-030 -8.29751e-031
-5.39731e-029 -7.43627e-030 -1.10989e-030
-9.17865e-030 -2.00102e-029 2.66952e-031
0.205212 0.0451444 0.0356206
0.24345 0.0881281 0.0216374
0.256487 0.198717 0.0512365
2.83643e-030 5.25229e-029 -3.24776e-029
5.61639e-017 5.32358e-017 1.28563e-017
-6.97827e-017 -4.5342e-017 -1.33922e-017
-2.17654e-029 -1.85873e-031 5.75343e-032
-1.35067e-017 -2.03429e-029 -6.92369e-029
5.22343e-017 -1.64818e-018 -3.5909e-020
0.309402 -0.000308071 0.00138813
-0.093686 -0.265225 0.00275796
1.62118e-030 3.28843e-030 -5.36855e-032
-0.152606 -0.263971 -0.00461097
3.60737e-030 8.10742e-030 4.87465e-032
-0.0600891 -0.137843 0.00368818
-0.127177 -0.273289 -0.000748595
-0.0605178 -0.14589 0.0022945
-0.0839418 -0.152286 0.00168292
9.92882e-018 1.95916e-017 -4.76157e-019
-0.0733789 -0.139564 -0.00010303
-0.287933 -0.325154 -0.0318092
-0.268542 -0.485604 -0.0342347
-0.118655 -0.184108 -0.0160573
-0.221505 -0.281582 -0.0389766
-0.286752 -0.416068 -0.0339019
-0.197933 -0.272924 -0.0258406
-0.224695 -0.36773 -0.0418972
-0.133672 -0.206749 -0.0228179
-0.212543 -0.363657 -0.030721
0.470969 0.00160876 8.45678e-005
-9.78456e-029 -2.67336e-031 3.53071e-031
-4.01189e-029 -1.88561e-031 5.39496e-032
0.484114 0.00210476 -0.000744823
0.307282 0.00245206 -0.000897687
0.290395 0.00241509 0.000644916
0.491091 0.00258655 -0.0010683
4.27552e-029 -8.44397e-030 -1.06085e-028
0.401951 -0.00145239 -0.00159068
0.353505 -0.000375815 -0.000338571
-1.75729e-029 2.59985e-032 1.63719e-032
-4.65686e-029 1.40599e-032 -7.16393e-033
-8.69409e-029 4.57946e-032 4.99835e-032
1.33617e-029 4.78931e-029 8.43973e-029
0.294899 -0.000466743 -0.000205647
6.40566e-017 3.18815e-019 -3.22739e-020
0.323229 0.00065774 0.000447976
-3.03241e-017 -1.00545e-019 2.91525e-020
0.29499 -8.14783e-005 -0.000405554
-2.63264e-029 4.77048e-032 -3.11212e-032
-5.10555e-029 5.53967e-032 -1.09623e-031
0.512943 -0.000582039 0.000265324
-8.82126e-029 1.19554e-031 -2.13476e-031
8.39237e-017 -2.09093e-019 4.15676e-019
0.387254 -0.000886107 0.000773456
-6.62023e-017 3.7277e-019 -1.68267e-019
0.397996 -0.000722345 0.00197826
3.1441e-017 5.70157e-020 2.07925e-019
0.377585 -0.00226741 0.000651328
0.470051 0.00115241 -0.00062199
-9.76386e-029 4.08159e-032 9.97914e-032
0.539719 9.00845e-005 -7.07582e-005
0.344601 0.000251122 -0.000346366
0.473031 0.00199306 0.000425297
0.376689 -0.00155081 0.00111401
0.54635 0.00196916 -0.000949037
0.383337 0.000804021 -0.000343269
1.29847e-029 1.24653e-031 -1.01919e-031
-0.347575 -0.00530315 0.004749
8.41392e-017 9.14e-019 -3.27541e-018
-0.462789 -0.00487003 0.00486932
-0.755091 -0.0106905 0.00458531
1.26521e-030 -5.87869e-029 3.76806e-030
1.52066e-031 -1.08437e-028 6.77335e-030
-0.00984579 0.668737 -0.0415255
4.41884e-005 0.675841 -0.0422693
-0.012231 0.466725 -0.030803
1.39133e-018 -9.05246e-017 6.0535e-018
-0.00804629 0.556166 -0.0354343
0.000641157 0.530383 -0.00281576
0.0120858 0.277795 0.00208737
0.00423526 0.542583 -0.0084974
0.000134844 0.355205 -0.000235771
0.0091916 0.430245 0.000361216
0.0033956 0.539115 -0.00581985
0.000340971 0.445565 -0.000486789
0.00846843 0.424918 -0.00277771
0.00518895 0.343323 0.000926346
0.00190432 0.463561 -0.00323089
0.00724771 0.26596 0.00602524
0.00183205 0.376361 0.00512339
0.000930684 0.283904 0.00313213
8.52108e-029 1.58382e-030 6.78773e-031
1.43249e-028 2.88752e-030 9.95151e-031
2.55886e-029 2.98269e-031 1.23849e-031
-0.631292 -0.00810365 -0.00368001
-0.595241 -0.00889849 -0.00591916
-0.594942 -0.0100291 -0.00359188
-1.35981e-016 3.44836e-019 -1.89553e-018
-1.60647e-016 -2.95885e-018 -1.36541e-018
-1.52643e-016 -3.13534e-018 -1.8626e-018
7.38537e-031 2.79118e-030 -6.15893e-032
-0.164052 -0.48951 -0.00403418
4.1286e-030 2.05471e-029 1.31722e-031
1.55315e-030 7.60476e-030 -1.37091e-031
-0.0948375 -0.356334 0.0065708
4.50241e-030 -4.22138e-030 -2.71985e-029
-4.28177e-017 -2.09517e-016 7.37968e-018