# vtk DataFile Version 2.0 
output.vtk, Created by Freefem++, via gregorio
ASCII
DATASET UNSTRUCTURED_GRID
POINTS 7451 double
-3.79965 2.23652 0.040848
-4.13429 2.05574 0.276253
-4.09122 2.24524 0.070091
-4.01836 2.27766 0.330071
-3.96697 2.14613 0.158551
-3.94543 2.24088 0.0554695
-3.90901 2.25709 0.185459
-4.11275 2.15049 0.173172
-4.07633 2.1667 0.303162
-4.05479 2.26145 0.200081
-4.81817 0.732763 -0.840268
-4.76136 0.37264 -0.736193
-5.12328 0.495929 -0.550642
-4.73872 0.559667 -0.434419
-4.78977 0.552702 -0.788231
-4.97072 0.614346 -0.695455
-4.77845 0.646215 -0.637344
-4.94232 0.434285 -0.643417
-4.75004 0.466153 -0.585306
-4.931 0.527798 -0.49253
-7.58244 -0.891248 -0.453516
-8 -0.559587 0.124298
-7.26059 -0.264226 0.250847
-7.58828 -0.999993 0.00381
-7.79122 -0.725418 -0.164609
-7.42152 -0.577737 -0.101334
-7.58536 -0.94562 -0.224853
-7.6303 -0.411906 0.187573
-7.79414 -0.77979 0.064054
-7.42444 -0.632109 0.127328
-5.46564 0.048234 0.998836
-5.51396 -0.351144 0.936321
-5.02851 -0.125769 0.598961
-5.56665 -0.148801 0.504295
-5.4898 -0.151455 0.967578
-5.24708 -0.0387675 0.798898
-5.51614 -0.0502835 0.751565
-5.27124 -0.238457 0.767641
-5.5403 -0.249972 0.720308
-5.29758 -0.137285 0.551628
-4.20269 -2.80441 0.102764
-3.63085 -2.57461 -0.287529
-4.13183 -2.29387 0.255347
-4.14432 -2.47254 -0.273935
-3.91677 -2.68951 -0.0923825
-4.16726 -2.54914 0.179055
-4.1735 -2.63848 -0.0855855
-3.88134 -2.43424 -0.016091
-3.88759 -2.52358 -0.280732
-4.13807 -2.38321 -0.009294
-6.25062 -0.085247 0.575431
-6.51584 -0.423084 -0.15939
-6.46019 0.447486 0.293263
-6.75561 -0.174737 0.413139
-6.38323 -0.254165 0.20802
-6.35541 0.181119 0.434347
-6.88822 -0.343655 0.0457285
-6.86039 0.09163 0.272055
-6.48801 0.012201 0.0669365
-4.88162 0.371746 0.655425
-4.51246 -0.112716 0.623981
-4.65723 0.09269 0.995695
-4.69704 0.129515 0.639703
-4.95507 0.122989 0.627193
-4.76942 0.232218 0.82556
-4.77049 -0.119243 0.611471
-4.58484 -0.010013 0.809838
-4.84287 -0.0165395 0.797328
-3.75099 1.20677 0.090288
-3.64118 0.745776 0.266863
-4.09568 0.790235 0.315934
-3.78936 1.07086 0.69071
-3.69609 0.976272 0.178575
-3.92333 0.998502 0.203111
-3.77017 1.13882 0.390499
-3.86843 0.768006 0.291399
-3.71527 0.908319 0.478787
-3.94252 0.930549 0.503322
-2.18572 0.40145 0.915881
-1.75478 0.245881 0.526965
-1.94554 -0.013967 0.999902
-1.76886 0.356252 0.93439
-1.97025 0.323665 0.721423
-2.06563 0.193741 0.957891
-1.97729 0.378851 0.925135
-1.85016 0.115957 0.763433
-1.76182 0.301067 0.730678
-1.8572 0.171143 0.967146
-5.06116 0.824959 0.710182
-4.88551 0.773989 0.80113
-4.92155 0.772883 0.437198
-5.01596 0.602336 0.857802
-4.97333 0.799474 0.755656
-4.99135 0.798921 0.57369
-5.03856 0.713647 0.783992
-4.90353 0.773436 0.619164
-4.95074 0.688163 0.829466
-4.96876 0.687609 0.6475
-2.34262 2.51752 0.051733
-2.4672 2.85727 -0.311185
-2.29554 2.81673 0.086134
-2.65762 2.74748 0.16058
-2.40491 2.6874 -0.129726
-2.31908 2.66712 0.0689335
-2.50012 2.6325 0.106157
-2.38137 2.837 -0.112526
-2.56241 2.80238 -0.0753025
-2.47658 2.7821 0.123357
-3.50303 -3.76846 -0.636668
-3.49422 -3.29308 -1.15018
-3.31427 -3.71149 -1.25136
-2.90724 -3.34218 -0.858121
-3.49863 -3.53077 -0.893424
-3.40865 -3.73997 -0.944014
-3.20514 -3.55532 -0.747394
-3.40425 -3.50228 -1.20077
-3.20073 -3.31763 -1.00415
-3.11076 -3.52683 -1.05474
-4.0054 2.49156 -0.125899
-3.5956 2.50054 -0.194198
-3.83412 2.54803 0.0159
-3.8005 2.49605 -0.160049
-3.90253 2.36404 -0.0425255
-3.91976 2.5198 -0.0549995
-3.69763 2.36853 -0.076675
-3.71486 2.52428 -0.089149
-3.81689 2.39228 0.028374
-3.73452 -3.68531 -1.05781
-3.52439 -3.6984 -1.15459
-3.61437 -3.4892 -1.104
-3.61877 -3.72688 -0.84724
-6.37864 0.944563 0.328331
-6.25891 0.813305 0.581838
-6.65332 0.772267 0.635298
-6.31878 0.878934 0.455085
-6.41941 0.696025 0.310797
-6.51598 0.858415 0.481815
-6.35955 0.630395 0.43755
-6.45612 0.792786 0.608568
-6.55675 0.609877 0.46428
1.62066 -0.841518 -0.540229
1.89324 0.238579 -0.195511
2.01627 -0.690819 -0.723027
2.25185 -0.211859 0.261412
1.75695 -0.30147 -0.36787
1.81846 -0.766169 -0.631628
1.93625 -0.526689 -0.139408
1.95475 -0.22612 -0.459269
2.07254 0.01336 0.0329505
2.13406 -0.451339 -0.230807
-2.56949 2.06853 0.305158
-2.91403 1.60744 0.564909
-3.02709 2.08175 0.021586
-2.87501 2.07662 0.630995
-2.74176 1.83799 0.435033
-2.79829 2.07514 0.163372
-2.72225 2.07258 0.468077
-2.97056 1.8446 0.293247
-2.89452 1.84203 0.597952
-2.95105 2.07919 0.32629
-5.39985 0.358755 0.933432
-5.34934 0.453264 0.543553
-5.56264 0.558471 0.829524
-5.70805 0.297641 0.954678
-5.37459 0.40601 0.738492
-5.48124 0.458613 0.881478
-5.55395 0.328198 0.944055
-5.45599 0.505868 0.686538
-5.52869 0.375452 0.749116
-5.63535 0.428056 0.892101
-4.17913 0.323834 -0.696515
-4.36183 0.516245 -0.417662
-4.60784 0.019305 -0.528365
-4.46586 0.364911 -0.72315
-4.27048 0.42004 -0.557088
-4.39349 0.17157 -0.61244
-4.3225 0.344372 -0.709832
-4.48483 0.267775 -0.473013
-4.41384 0.440578 -0.570406
-4.53685 0.192108 -0.625757
-5.9377 0.438799 -0.558905
-5.87927 0.529091 -0.848565
-6.25926 0.555743 -0.831354
-6.07929 0.245277 -0.969453
-5.90849 0.483945 -0.703735
-6.09848 0.497271 -0.695129
-6.00849 0.342038 -0.764179
-6.06927 0.542417 -0.839959
-5.97928 0.387184 -0.909009
-6.16928 0.40051 -0.900404
-3.64743 2.72944 0.180305
-3.74077 2.63873 0.0981025
-3.72354 2.48298 0.110576
-3.62151 2.61499 -0.0069465
-3.98168 0.388062 0.141859
-3.76543 0.320245 0.603448
-3.81143 0.566919 0.204361
-3.70331 0.533011 0.435156
-4.03868 0.589149 0.228897
-3.87356 0.354154 0.372653
-3.93055 0.55524 0.459691
-6.17342 0.027823 -0.593282
-6.59748 0.255766 -0.966739
-6.35964 0.547779 -0.240473
-6.21634 0.291783 -0.712318
-6.42837 0.405755 -0.899047
-6.30945 0.551761 -0.535914
-6.38545 0.141794 -0.78001
-6.26653 0.287801 -0.416878
-6.47856 0.401772 -0.603606
-5.98474 0.742767 -0.66955
-5.96122 0.590783 -0.614227
-6.122 0.649255 -0.750452
-5.93201 0.635929 -0.759057
-5.86659 0.345457 -0.129882
-5.96054 -0.099592 -0.035866
-6.02 0.18664 -0.361582
-6.11312 0.446618 -0.185177
-5.91357 0.122933 -0.082874
-6.06698 -0.0358845 -0.314574
-6.16009 0.224094 -0.13817
-1.10421 0.363269 -0.931684
-0.773878 0.737644 -0.67519
-0.520452 0.269543 -0.962988
-0.384634 0.008888 -0.353445
-0.939043 0.550457 -0.803437
-0.812329 0.316406 -0.947336
-0.74442 0.186079 -0.642564
-0.647165 0.503594 -0.819089
-0.579256 0.373266 -0.514317
-0.452543 0.139215 -0.658216
-2.85287 -3.00249 -1.21636
-3.23054 -2.92385 -1.196
-3.06719 -3.3306 -1.25351
-2.88006 -3.17233 -1.03724
-3.06889 -3.13301 -1.02706
-2.98722 -3.33639 -1.05581
-3.0417 -2.96317 -1.20618
-2.96003 -3.16654 -1.23493
-3.14886 -3.12722 -1.22475
-3.38618 -2.05134 -0.098565
-2.37808 -2.56123 -0.134541
-2.49252 -2.47812 0.422472
-2.41131 -1.89586 0.044632
-2.88213 -2.30628 -0.116553
-2.93935 -2.26473 0.161954
-2.89875 -1.9736 -0.0269665
-2.4353 -2.51967 0.143966
-2.39469 -2.22855 -0.0449545
-2.45192 -2.18699 0.233552
-1.85713 -0.413967 0.42138
-1.65927 -0.390905 0.920431
-1.2503 -0.077569 0.384148
-1.80595 -0.084043 0.474172
-1.70702 -0.072512 0.723698
-1.50254 0.084156 0.455557
-1.7582 -0.402436 0.670905
-1.55371 -0.245768 0.402764
-1.45478 -0.234237 0.652289
-2.09043 2.55218 0.167395
-2.0659 2.66009 -0.048555
-2.19298 2.68445 0.126765
-2.18072 2.73841 0.0187895
-2.07816 2.60614 0.05942
-2.21652 2.53485 0.109564
-2.20426 2.58881 0.001589
-4.01665 2.44382 0.136481
-3.97233 2.67361 0.084512
-3.92539 2.49592 0.0761905
-3.99449 2.55872 0.110496
-4.01103 2.46769 0.005291
-3.90323 2.61082 0.050206
-3.98887 2.58259 -0.0206935
-3.92754 1.80484 -0.220103
-4.28096 1.83407 -0.225431
-4.13592 1.88983 -0.461486
-4.146 2.03152 -0.278406
-4.10425 1.81945 -0.222767
-4.03173 1.84734 -0.340795
-4.03677 1.91818 -0.249254
-4.20844 1.86195 -0.343458
-4.21348 1.9328 -0.251918
-4.14096 1.96068 -0.369946
-4.04038 -5 0.949212
-3.62468 -5 1.26221
-3.84559 -4.54287 1.07336
-3.71487 -5 0.728948
-3.83253 -5 1.10571
-3.94299 -4.77144 1.01129
-3.87763 -5 0.83908
-3.73513 -4.77144 1.16779
-3.66977 -5 0.99558
-3.78023 -4.77144 0.901156
-1.37334 0.812082 -0.583544
-0.975724 0.961208 -0.275823
-1.19336 -0.166381 -0.273753
-1.17453 0.886645 -0.429683
-1.07361 0.774863 -0.629367
-1.28335 0.32285 -0.428648
-0.874801 0.849426 -0.475506
-1.08454 0.397413 -0.274788
-0.983618 0.285631 -0.474471
-3.83515 -1.82017 -0.741539
-3.34976 -1.58414 -0.592596
-3.50394 -2.07825 -1.02313
-3.59245 -1.70215 -0.667067
-3.66955 -1.94921 -0.882335
-3.61067 -1.93575 -0.420052
-3.42685 -1.83119 -0.807863
-3.36797 -1.81774 -0.345581
-3.44506 -2.06479 -0.560848
-2.72946 0.769161 0.094533
-2.75119 0.681139 -0.326037
-2.98528 1.02631 -0.281501
-3.08113 0.734324 -0.34324
-2.74032 0.72515 -0.115752
-2.85737 0.897737 -0.093484
-2.90529 0.751742 -0.124353
-2.86823 0.853726 -0.303769
-2.91616 0.707731 -0.334639
-3.03321 0.880319 -0.31237
-2.94023 -2.47675 -0.674772
-3.14499 -2.03044 -0.633684
-3.22209 -2.2775 -0.848951
-3.16321 -2.26404 -0.386669
-3.03914 -4.25341 0.579285
-2.64287 -3.80807 0.20828
-2.47531 -4.18593 0.714333
-2.97264 -3.41482 0.618231
-2.84101 -4.03074 0.393783
-2.75723 -4.21967 0.646809
-3.00589 -3.83412 0.598758
-2.55909 -3.997 0.461307
-2.80776 -3.61144 0.413255
-2.72397 -3.80037 0.666282
-2.39684 -0.595487 -0.803365
-1.98884 -0.54749 -0.836812
-2.24172 -0.466498 -0.098067
-2.21295 -0.01831 -0.514797
-2.19284 -0.571489 -0.820088
-2.31928 -0.530992 -0.450716
-2.3049 -0.306899 -0.659081
-2.11528 -0.506994 -0.46744
-2.1009 -0.2829 -0.675804
-2.22734 -0.242404 -0.306432
-3.36239 -4.55484 -1.31864
-3.11171 -4.25429 -0.873787
-2.86199 -4.55394 -1.36046
-2.79118 -5 -0.96439
-3.23705 -4.40456 -1.09621
-3.11219 -4.55439 -1.33955
-3.07678 -4.77742 -1.14151
-2.98685 -4.40411 -1.11712
-2.95144 -4.62714 -0.919088
-2.82658 -4.77697 -1.16243
-3.88203 2.65205 -0.416886
-3.48121 2.84727 -0.340672
-3.82273 3 -0.474998
-3.72541 2.76868 -0.627028
-3.68162 2.74966 -0.378779
-3.85238 2.82603 -0.445942
-3.80372 2.71037 -0.521957
-3.65197 2.92364 -0.407835
-3.60331 2.80798 -0.48385
-3.77407 2.88434 -0.551013
[...]
POINT_DATA 7451
 
FIELD FieldData 2
velocity 3 7451 double
-0.121426 -0.348003 0.0088639
1.50096e-030 3.38446e-030 -1.74601e-031
4.39056e-031 1.20004e-030 -5.1445e-032
1.25303e-030 3.35662e-030 -1.59122e-031
-0.0825977 -0.201609 0.0104706
-0.0723535 -0.199547 0.00851107
-0.0794318 -0.229218 0.0112602
-1.86335e-018 -4.49147e-018 2.87688e-019
5.59088e-018 1.3827e-017 -1.00319e-018
1.85818e-029 -7.96715e-030 -4.33532e-030
8.68632e-030 2.91394e-030 -1.86679e-031
-0.405571 -0.108726 0.000743559
-0.618231 -0.141533 0.00679516
-0.696006 -0.228168 0.00548532
-0.22441 -0.0765708 0.00667319
-0.302741 -0.0926087 0.00939142
-0.400331 -0.145995 0.0087705
-0.527924 -0.133462 0.00650541
-0.584348 -0.173359 0.00482616
-0.666607 -0.190918 0.00767802
9.31181e-029 -2.78771e-031 2.68833e-032
-0.835531 0.00716785 -0.000596427
-1.0872 -2.04969e-006 -0.00053115
5.38106e-029 -2.13754e-031 5.03942e-032
-0.544919 0.00329399 3.24517e-005
-0.824306 -7.45943e-005 -0.0024993
-1.32763e-016 2.3573e-019 -3.14922e-019
-0.992561 0.00122119 -5.07201e-005
-0.473539 0.0062334 -0.000814115
-0.732365 0.00187235 -0.000169345
3.17214e-029 3.25575e-030 5.71302e-032
2.08968e-029 1.32544e-030 2.7269e-031
-0.69106 -0.101662 -0.0134234
-0.872077 -0.0602676 -0.00496004
-1.45707e-016 -6.10063e-018 -1.47923e-018
-0.417924 -0.0474964 -0.0038949
-0.519939 -0.033009 -0.00345955
-0.398969 -0.0308093 -0.00753458
-0.499408 -0.0228542 -0.00495341
-0.787134 -0.0832157 -0.00828014
-4.19536e-030 -6.42374e-029 1.23097e-030
0.0270293 0.455134 0.00640289
-4.58204e-030 -7.57992e-029 1.67319e-030
-8.20736e-031 -9.90897e-030 -5.96914e-032
0.0242312 0.300789 -0.00116779
-5.28597e-017 -5.86874e-016 1.204e-017
-4.11192e-018 -4.18244e-017 2.691e-019
0.0274542 0.352624 -0.00273678
0.0228115 0.267808 0.00217503
-5.90987e-017 -6.31759e-016 6.05154e-018
-0.819246 -0.015918 -0.0024007
-0.988003 -0.00963636 -0.0020052
-0.890659 -0.0126668 -0.00106502
-0.995741 -0.00265119 -0.000987765
-1.11452 -0.0169457 -0.00305218
-0.970739 -0.0167711 -0.00234664
-1.09861 -0.00463095 -0.00365289
-1.15181 -0.00254632 -0.0005404
-1.24935 -0.0167498 -0.00156779
-0.55628 -0.182274 0.00448831
-0.563556 -0.0994844 -0.0195186
1.80617e-029 4.90478e-030 1.85704e-031
-0.615351 -0.161077 -0.00784221
-0.679889 -0.150422 -0.00375415
-0.305995 -0.106979 0.00317227
-0.627047 -0.108798 -0.0184071
-0.338462 -0.0913648 -0.00999254
-0.38569 -0.082504 -0.0080782
-0.421879 -0.447706 -0.0179723
-0.456175 -0.259651 -0.0396723
-0.593996 -0.328097 -0.0106685
-0.234112 -0.291362 0.00109693
-0.455309 -0.377801 -0.031406
-0.509387 -0.389641 -0.0152769
-0.385179 -0.406556 -0.0111202
-0.542298 -0.302309 -0.0250708
-0.378021 -0.319824 -0.0179268
-0.414186 -0.326359 -0.00395174
-1.63986e-029 -5.6675e-030 8.49604e-031
0.342054 0.046624 -0.00407322
-1.98035e-029 -5.47089e-030 -3.99818e-031
-4.18591e-030 -1.78367e-031 2.02165e-033
0.184225 0.0257891 -0.0041092
5.91257e-017 3.37041e-018 2.44673e-018
3.15724e-018 1.77176e-019 -5.51767e-021
0.209439 0.0145108 -0.000541903
0.195396 0.00922866 0.00170804
-6.80566e-017 -1.24409e-019 -9.32256e-019
2.47298e-017 1.1465e-017 -6.79078e-019
2.66154e-030 1.20912e-030 -5.05221e-032
-0.501869 -0.20662 0.00838401
2.84362e-030 1.15829e-030 -5.29225e-032
1.23672e-017 6.17891e-018 -3.80829e-019
-0.283256 -0.124807 0.00642888
1.53095e-016 6.85653e-017 -2.21527e-018
-0.283315 -0.136201 0.0074827
1.50687e-016 7.70275e-017 -3.38513e-018
-0.312418 -0.132898 0.00561401
-0.0329547 -0.237153 -0.0118514
-0.0202157 -0.255683 -0.0079344
-0.0124693 -0.235809 -0.00589928
-0.0514862 -0.495183 -0.0126174
-0.0286992 -0.270277 -0.00987596
-0.0229379 -0.237579 -0.00903216
-0.0450165 -0.377729 -0.013869
-0.0185306 -0.272599 -0.00832792
-0.037764 -0.399722 -0.0106501
-0.0316723 -0.381507 -0.00979877
0.0117685 0.290265 0.00995967
-6.53614e-031 -2.11276e-029 -1.08719e-030
-3.29172e-031 -1.59996e-029 -9.11203e-031
-0.00173147 0.234659 0.0136213
0.00658144 0.149184 0.00826092
0.00573652 0.145973 0.00824882
0.00491497 0.292055 0.0130406
2.16032e-029 2.20108e-030 6.27321e-029
0.00228913 0.137093 0.00928314
0.00112816 0.117574 0.00831887
9.40273e-031 3.49139e-030 -9.18399e-032
-0.0905253 -0.376917 0.00388609
-0.0484068 -0.230614 0.00456372
-0.0581895 -0.235942 0.00597917
-0.0602679 -0.195219 0.00569807
-0.0276788 -0.118113 0.00314617
-0.109888 -0.375215 0.0055051
-0.0759878 -0.332993 0.00539048
-0.0819932 -0.288068 0.00700336
-2.64773e-031 -4.71667e-030 -2.31243e-031
-3.73056e-018 -6.88166e-017 -4.89136e-018
3.62866e-018 6.17229e-017 4.2961e-018
0.00791538 0.142447 0.00691565
9.90563e-030 1.68496e-031 4.46399e-033
1.31225e-029 2.17011e-031 1.72659e-032
1.71166e-029 1.82344e-031 4.4596e-032
6.88422e-017 1.51687e-018 9.6404e-020
-0.514335 -0.012607 -0.000614478
-4.75155e-030 -4.3957e-029 -2.22057e-029
-0.504955 -0.00637301 -0.000721784
-1.79829e-017 8.09403e-019 -4.00291e-020
-0.513714 -0.00575627 -0.00108695
-1.43874e-028 3.68463e-031 -6.62512e-032
0.476577 0.000507233 0.00068638
-5.32332e-029 4.24933e-032 -1.24093e-031
0.464319 -0.00212989 0.00127522
0.409294 -0.00130046 0.000280417
-6.57668e-017 4.84283e-020 -2.95023e-019
0.36966 -0.000271307 0.0013137
0.387474 0.000633231 0.000852255
0.5256 -0.00106298 0.00158888
0.390804 -0.00118266 0.00169383
-0.0791855 -0.322243 -0.0244477
-0.115983 -0.325899 -0.0294048
-0.168221 -0.537625 -0.0221162
-0.0885039 -0.386894 -0.0180902
-0.105063 -0.350353 -0.0293036
-0.132541 -0.478195 -0.0285176
-0.0919017 -0.38448 -0.0249175
-0.174838 -0.506422 -0.0315232
-0.105636 -0.363403 -0.0241383
-0.148805 -0.536971 -0.0259512
2.99813e-030 3.95043e-031 -6.63284e-032
-0.660065 -0.121107 0.00971277
6.48241e-030 5.16974e-031 -1.14309e-031
2.87359e-029 1.90541e-030 -1.47875e-031
-0.372611 -0.0491353 0.0102262
-9.69928e-017 -7.70572e-018 3.42168e-018
1.34924e-016 6.21094e-018 -3.97738e-018
-0.360375 -0.0434313 0.00884539
-0.376048 -0.0306888 0.00697068
-2.20039e-017 -7.19452e-019 7.81079e-019
-0.397891 -0.10217 -0.0143327
-0.675663 -0.229899 -0.0110612
-0.717658 -0.112218 -0.00640363
-0.403305 -0.117721 -0.00522775
-0.558252 -0.168707 -0.0137584
-0.574157 -0.118112 -0.0111715
-0.405099 -0.114183 -0.00955673
-0.731492 -0.172566 -0.0111975
-0.569915 -0.180424 -0.00664105
-0.58491 -0.127024 -0.00627475
-0.61905 -0.0137221 0.00165753
3.22521e-030 3.92739e-032 -5.45484e-033
2.86856e-029 3.59976e-031 -1.42295e-031
1.32161e-029 1.83869e-031 -2.49246e-032
-0.334198 -0.00345335 0.00115161
-0.331699 -0.00635586 0.00272573
-0.361857 -0.00435271 0.00192236
-2.37392e-016 -1.96386e-018 2.03076e-018
-1.14416e-016 -2.79726e-019 9.97069e-019
-1.06187e-029 -2.08613e-029 4.68235e-029
-0.0580827 -0.394423 0.00502129
-0.0553766 -0.320465 0.00517752
-0.0857876 -0.368425 0.00622001
-0.0789295 -0.416007 0.00406475
-0.727283 -0.146825 -0.0369535
-0.400225 -0.0457938 -0.0154025
-0.591739 -0.198906 -0.0406016
-0.45358 -0.144959 -0.031021
-0.68114 -0.25607 -0.0254408
-0.60243 -0.0962433 -0.0294317
-0.53581 -0.206116 -0.0168075
-0.800168 -0.0105656 0.000517866
-3.62774e-017 4.09107e-020 8.0184e-020
-0.800862 -0.009238 0.00321888
-0.501203 -0.00747459 0.00291165
-2.40089e-029 -2.98023e-029 5.87699e-029
-0.50147 -0.00589187 0.00441464
-0.455426 -0.00800759 0.00168678
-0.928935 -0.0128567 0.00287722
-0.583608 -0.00298294 0.00293616
5.21167e-030 9.34286e-032 -5.06799e-033
-0.338765 -0.00652552 0.00185116
-7.65718e-017 -1.27719e-018 7.95151e-019
-1.01144e-016 -8.67677e-019 6.05021e-019
-1.09677 -0.0507965 0.00237837
-1.2271 -0.0411858 -0.00306547
-1.0444 -0.0267473 0.000493108
-0.964957 -0.0224242 0.00307643
-1.22569 -0.0500504 2.13383e-005
-1.12108 -0.0264017 -0.00141556
-1.16845 -0.0273226 0.00125009
1.95945e-017 -1.68105e-019 -3.12788e-019
-4.70116e-029 4.27608e-031 4.62317e-031
-1.74487e-029 5.01326e-032 9.34561e-032
0.468041 -0.00430188 -0.000909702
-3.01353e-017 2.96867e-019 4.41355e-019
1.29729e-029 -3.15824e-029 9.54734e-029
0.286875 -0.00286703 -0.00292672
-3.10801e-017 1.01518e-019 3.22332e-019
0.320923 -0.00351418 -0.0023596
0.289963 0.000132263 -0.00200373
7.84893e-032 -7.1573e-030 -5.59354e-031
-3.19719e-031 -2.24269e-029 -1.36846e-030
-6.16403e-033 -2.62036e-030 -1.95883e-031
-0.00132027 0.11959 0.0091831
0.00206441 0.126649 0.0100419
5.1335e-005 0.115549 0.00816664
-7.1493e-019 1.24875e-030 5.13957e-029
-8.95281e-020 2.61591e-017 2.34014e-018
6.62022e-019 -5.54531e-017 -5.06166e-018
0.0218669 0.741781 -0.000872419
-0.0259255 0.538948 0.00308329
-0.0273743 0.686389 -0.0283939
-0.0282174 0.677705 -0.0121458
-0.00748387 0.786163 0.00284045
-0.00393193 0.905855 -0.016352
-0.00679714 0.883277 -0.00745979
-0.0281155 0.671341 -0.00936215
-0.0272132 0.609269 -0.00207268
-0.0292383 0.710875 -0.0214389
0.362023 0.153551 0.0218288
-2.55642e-029 -1.47366e-030 -1.41931e-031
0.448732 0.0134562 -0.00251404
0.401745 0.0980829 0.00077511
0.243002 0.00582245 -0.000670919
0.415381 0.0299327 -0.00101702
0.194285 0.00430103 0.00785496
0.406789 0.0485996 -0.00216906
0.265344 0.000246899 -0.00325876
-1.97153e-018 -2.68673e-017 -1.00342e-018
1.07283e-031 1.22758e-030 5.27611e-032
-0.0075568 -0.119452 -0.00373433
-0.00809945 -0.115445 -0.00342649
-4.18403e-018 -5.19552e-017 -1.87014e-018
-0.0164867 -0.129086 -0.00645806
-0.0152341 -0.122359 -0.00706638
-7.40094e-018 -2.98554e-017 1.02971e-018
2.75885e-031 1.75201e-030 -3.39457e-032
-0.031103 -0.133047 0.00387944
1.24695e-017 6.61128e-017 -1.43158e-018
1.99667e-029 -6.57139e-030 -1.21204e-031
-0.0211792 -0.131133 0.00162606
2.18978e-017 1.18962e-016 -2.21189e-018
-0.182566 -0.296009 0.00745537
1.43035e-030 2.00732e-030 -1.04089e-031
6.76451e-031 1.09134e-030 -5.1674e-032
5.07856e-031 8.87522e-031 -4.33976e-032
-0.11228 -0.169923 0.00892713
-0.102803 -0.165187 0.0079008
-0.0998168 -0.170119 0.008131
-5.13194e-017 -7.75618e-017 5.4305e-018
-2.85761e-016 -4.54229e-016 3.15305e-017
-1.97774e-016 -3.32715e-016 2.18565e-017
-1.20156e-031 -3.42337e-030 1.29524e-031
-1.78039e-031 -9.57334e-030 4.18405e-031
-5.73498e-031 -1.68842e-029 8.46477e-031
0.00948128 0.363751 -0.0104524
-3.24835e-018 -1.34365e-016 6.0253e-018
-5.38465e-019 -1.55475e-017 7.63513e-019
0.0061059 0.211233 -0.00702236
2.88805e-018 1.02606e-016 -1.57608e-018
0.00544258 0.252243 -0.0108316
0.00833974 0.250862 -0.011965
-5.43056e-029 -1.39464e-031 1.18984e-030
-5.70161e-029 3.18656e-031 6.0501e-031
0.471322 -0.010285 -0.000111529
2.49132e-017 4.40101e-020 -6.22383e-019
-2.71147e-017 1.546e-019 6.11955e-019
0.37787 -0.00275165 -0.00814014
-6.16556e-017 5.14465e-019 6.14054e-019
0.413565 -0.00140906 -0.00579997
0.364581 -0.00528041 -0.00335343
6.14239e-020 9.20122e-019 4.54742e-020
0.00732027 0.411674 0.0177168
-2.16684e-030 -6.14532e-029 -2.32521e-030
0.0084316 0.223937 0.0111357
-9.19311e-018 -7.0904e-017 -9.6744e-018
0.0201253 0.405029 0.0106342
0.00776478 0.190188 0.0126757
0.0149768 0.60737 0.011811
0.0160839 0.394915 0.0155287
0.0209828 -0.0554102 -0.0419139
0.0195377 -0.00808013 -0.0306162
-0.126709 -0.208483 -0.0323651
-0.132563 -0.0980434 -0.0433327
0.0185786 -0.0407211 -0.0404503
-0.060363 -0.157385 -0.0406539
-0.0607745 -0.0986571 -0.0487244
-0.0442201 -0.0918882 -0.0293495
-0.0498446 -0.0509327 -0.0374022
-0.123786 -0.156996 -0.0383538
-0.00179676 0.378251 0.018649
0.00697838 0.424992 0.0187982
0.00722073 0.228864 0.0139707
0.00912545 0.607052 0.0146195
0.000704527 0.621104 -0.0217537
-0.0160654 0.670341 -0.00956674
-0.0164861 0.482092 -0.0245921
-0.000785979 0.680617 -0.0334306
-0.00810739 0.692291 -0.0158769
-0.00941133 0.598404 -0.0250948
0.000365621 0.651567 -0.0282196
-0.0184193 0.614514 -0.0179628
-0.0101936 0.720263 -0.0192171
-0.0123319 0.609342 -0.0299353
1.76921e-017 5.37233e-017 3.67992e-018
5.61668e-017 1.38448e-018 1.20397e-019
0.395988 0.449365 -0.0192851
0.297273 0.109652 -0.024656
1.33754e-029 3.66223e-029 4.12793e-029
0.262996 0.298945 -0.0143607
0.198973 0.112925 -0.0176952
0.296048 0.170246 -0.0168525
0.228574 0.0577585 -0.0123099
0.379235 0.257298 -0.0271733
8.42722e-019 2.04694e-017 1.64291e-018
0.00211915 0.217349 0.00917119
1.93321e-031 -1.36303e-029 -5.36967e-031
-0.00176429 0.162861 0.00353305
0.00242743 0.10043 0.00599231
1.41805e-018 3.09694e-017 4.15596e-018
0.000643638 0.0903099 0.00358546
3.17216e-005 0.0996958 0.00548442
-0.000680385 0.19453 0.00566518
-0.00107916 0.0786864 0.00305476
6.19828e-031 3.37741e-030 -7.01375e-032
-0.0415851 -0.327533 0.00239923
5.83067e-031 1.08662e-029 -1.16882e-031
9.87968e-031 4.92919e-030 -8.95387e-032
-0.028052 -0.1927 0.00379607
-2.88714e-017 -2.45712e-016 5.72273e-018
2.22058e-029 -4.85806e-030 1.54856e-029
-0.0180734 -0.186664 0.00242488
-0.0260191 -0.178454 0.00189825
-2.31281e-017 -1.99867e-016 3.10049e-018
0.50636 -0.000298842 -0.000148287
-1.98814e-029 2.43906e-032 -5.57902e-033
-2.06686e-029 1.46621e-032 3.99952e-033
-3.51943e-029 4.93334e-032 5.67753e-033
0.342093 0.000143267 -6.05147e-005
0.343642 -0.000150259 -0.000225822
0.341597 -0.000286007 5.75076e-005
1.39416e-029 -6.32511e-020 9.42327e-020
1.26389e-029 -1.17767e-021 -1.25388e-020
2.50583e-017 -1.66363e-020 -1.37846e-030
0.196072 0.726853 -0.0403901
-0.0123655 0.821095 -0.0225305
-0.0177878 0.877916 -0.0760268
0.0352789 0.734192 -0.00129146
0.0893544 0.899457 -0.04428
0.0660569 0.843525 -0.0657298
0.13415 0.840408 -0.033841
-0.0187722 0.972337 -0.0555068
0.0510667 0.838744 -0.0139848
0.0417872 0.973365 -0.0477604
-7.43982e-029 1.03285e-031 3.06861e-032
-4.38561e-029 9.00218e-032 1.01054e-031
-5.44116e-029 4.25479e-031 -3.2261e-032
0.464243 -0.00384277 -2.16349e-005
1.94474e-017 1.00857e-019 -1.03716e-019
3.78814e-019 -3.60013e-022 -5.96636e-022
0.367244 4.86091e-005 -0.00134654
8.95093e-019 -1.88222e-022 3.42283e-030
0.32823 0.000433021 -0.00113542
0.373207 -0.0024531 0.000535098
8.07256e-030 4.68916e-030 -2.36841e-031
-0.388098 -0.234827 0.011893
2.7507e-030 1.62749e-030 -1.01409e-031
-0.264891 -0.169443 0.00979955
-0.257342 -0.137329 0.00773396
5.66918e-016 3.81537e-016 -2.80432e-017
-0.445215 -0.223986 0.00998958
-0.234321 -0.153345 0.0112421
-0.247157 -0.135536 0.00785453
-0.827806 0.000797589 0.00588981
1.76203e-028 -2.13157e-031 -2.54622e-031
1.31193e-029 -8.3e-032 -1.63286e-031
-0.826645 0.00500015 0.00287998
-0.548523 0.00258423 0.00271508
-0.494407 -0.000469761 0.00625023
-0.914788 0.00391941 0.00349108
-2.26787e-029 3.26052e-029 6.06775e-029
-0.466562 0.00421679 0.0018534
-0.498754 0.00628366 0.00346495
-3.55235e-029 3.58983e-031 2.42731e-031
-1.3036e-029 2.16782e-031 1.64787e-031
-2.01667e-029 -7.96222e-031 8.92318e-032
-4.51187e-017 1.99579e-018 4.00076e-019
-1.1689e-018 1.9592e-020 3.96715e-020
0.293636 -0.00268149 -0.00191724
-1.60532e-017 4.32998e-019 6.03509e-019
0.271358 -0.00565786 -0.0023602
0.28104 0.00353804 -0.011229
-7.77034e-029 1.2317e-030 -2.40661e-031
0.375236 -0.00610437 0.000362757
0.314052 -0.00920268 0.00187451
0.340177 -0.00671922 0.000733973
0.520823 -0.00759342 -0.00021017
0.537975 -0.00518935 -0.000196913
0.474007 -0.00976582 -0.000632408
-1.70243e-029 -1.17209e-031 1.35399e-032
-3.1962e-029 4.47457e-031 -1.95855e-032
5.31416e-017 -2.62494e-018 -2.99911e-019
4.63967e-017 -2.01592e-018 -3.14268e-019
0.275064 -0.00352208 -0.000714386
4.16172e-018 -2.0982e-019 -4.92838e-020
0.282663 -0.00423421 -0.00280065
-5.95399e-029 2.28347e-031 2.41639e-031
0.463815 0.00162992 -0.000669841
-3.96241e-029 1.307e-031 1.04625e-031
0.284991 -0.00145239 -0.00079645
-9.61645e-017 1.30263e-019 6.94438e-019
0.364563 -0.00286871 -0.00186601
0.296487 -3.31833e-005 -0.000784659
0.486179 -0.0014228 -0.000779727
0.313147 0.000684005 -0.00218973
-1.59438e-029 1.19754e-031 -1.29295e-031
-4.69321e-029 9.86803e-033 -3.08603e-031
-5.46558e-029 3.01926e-031 -2.64199e-031
3.29495e-017 -5.21436e-019 8.24859e-019
-3.54547e-017 6.03006e-019 -7.88478e-019
0.288082 -0.00379089 0.00568866
-2.31545e-017 3.25211e-019 -3.82598e-019
0.299535 -0.00289928 0.00384748
0.299336 -0.00331622 0.00284956
1.37495e-030 -8.00672e-030 4.17083e-031
-0.17824 0.116758 -0.0208732
1.87916e-030 -3.66999e-030 5.37887e-031
0.073535 0.22118 -0.0270322
-0.0595605 0.085256 -0.00554503
1.89176e-018 6.927e-018 5.10272e-020
0.00823835 0.137701 -0.00675493
-0.0674303 0.0431502 -0.00502596
-0.0681435 0.182244 -0.0221795
-0.00415468 0.0772064 -0.00764278
-6.45418e-030 -3.39955e-030 -7.2647e-031
-5.17946e-029 -7.15653e-030 -8.16141e-031
-8.76704e-030 -1.86795e-029 2.69314e-031
0.204084 0.0417231 0.0326552
0.241498 0.0842569 0.0186893
0.253744 0.190749 0.0471497
2.7424e-030 5.10979e-029 -3.16768e-029
5.5542e-017 5.09255e-017 1.16569e-017
-6.9282e-017 -4.37062e-017 -1.21099e-017
-2.08487e-029 -8.41422e-032 8.985e-033
-1.33324e-017 -1.98572e-029 -8.09214e-020
5.15472e-017 -1.75373e-018 1.00135e-020
0.304646 -0.0013857 0.00161414
-0.093678 -0.267058 0.0027126
1.57542e-030 3.21214e-030 -4.956e-032
-0.151706 -0.264802 -0.004692
3.50504e-030 7.91872e-030 4.85506e-032
-0.0600853 -0.138346 0.00361836
-0.126749 -0.274622 -0.000902383
-0.0604994 -0.146324 0.00224411
-0.0837385 -0.15273 0.00156053
9.93616e-018 1.96375e-017 -4.57136e-019
-0.0731922 -0.13991 -0.000176364
-0.28355 -0.324641 -0.0295476
-0.263867 -0.48686 -0.0290235
-0.117704 -0.184663 -0.0154127
-0.217988 -0.280865 -0.0358277
-0.282254 -0.41638 -0.0302213
-0.19545 -0.273518 -0.0243935
-0.221169 -0.368573 -0.0370824
-0.132104 -0.206817 -0.0213243
-0.209837 -0.365308 -0.028065
0.462121 0.00154458 9.90885e-005
-9.36375e-029 -2.49512e-031 3.31841e-031
-3.84398e-029 -1.78065e-031 4.97532e-032
0.47487 0.00205564 -0.000725713
0.302381 0.00236222 -0.000841194
0.285937 0.00236174 0.000642577
0.481804 0.00252702 -0.00101345
4.09586e-029 -8.22577e-030 -1.03282e-028
0.395254 -0.00144442 -0.00153915
0.347925 -0.000377825 -0.000319682
-1.68486e-029 2.42343e-032 1.65015e-032
-4.45983e-029 1.5255e-032 -7.96847e-033
-8.32063e-029 3.77096e-032 4.58689e-032
1.28189e-029 4.66288e-029 8.21722e-029
0.290389 -0.000439044 -0.000240542
6.32134e-017 3.00582e-019 -3.22044e-020
0.31811 0.000640661 0.000459962
-2.98705e-017 -9.48777e-020 2.48968e-020
0.290328 -6.33411e-005 -0.000390935
-2.52055e-029 4.39265e-032 -2.80085e-032
-4.88597e-029 4.9911e-032 -1.03918e-031
0.502374 -0.000561344 0.00022948
-8.43804e-029 1.15458e-031 -2.02604e-031
8.26604e-017 -1.93057e-019 4.01141e-019
0.380786 -0.00082697 0.000729186
-6.52165e-017 3.56318e-019 -1.63454e-019
0.39122 -0.000670095 0.00191303
3.09462e-017 5.70904e-020 2.03854e-019
0.371199 -0.00218987 0.000640719
0.461144 0.00117358 -0.000625662
-9.34257e-029 3.05393e-032 9.78839e-032
0.529284 0.000144702 -6.02421e-005
0.338992 0.000272681 -0.000391465
0.464242 0.00199543 0.000418791
0.370368 -0.00148041 0.00108565
0.535583 0.00195989 -0.000910723
0.376961 0.000810674 -0.000341274
1.24757e-029 1.23175e-031 -9.36125e-032
-0.343193 -0.00534941 0.0045748
8.31618e-017 9.1956e-019 -3.20357e-018
-0.456799 -0.0048954 0.00467465
-0.743799 -0.0108344 0.00424754
1.165e-030 -4.93569e-029 2.91776e-030
1.42889e-031 -9.06604e-029 5.21564e-030
-0.00920917 0.570355 -0.033067
-1.23407e-005 0.57189 -0.0337316
-0.0114343 0.395355 -0.0246548
1.27939e-018 -7.4592e-017 4.88896e-018
-0.00744919 0.466057 -0.0283018
0.000664613 0.586574 0.00241191
0.0126514 0.309208 0.0043545
0.00444059 0.579832 -0.00360118
0.000206125 0.404257 0.00280951
0.00968316 0.481778 0.00442924
0.0036131 0.587038 -0.000909439
0.00043492 0.50233 0.00341736
0.00879059 0.472736 0.00096477
0.00559088 0.386714 0.00375737
0.00214529 0.52081 0.000751283
0.00771684 0.290057 0.00791057
0.00191484 0.420392 0.0084024
0.00101079 0.313238 0.00536835
8.17209e-029 1.51274e-030 6.1045e-031
1.37245e-028 2.79059e-030 8.91433e-031
2.45597e-029 2.89337e-031 1.1055e-031
-0.622033 -0.0080184 -0.00337079
-0.586568 -0.0089837 -0.0055784
-0.586427 -0.00996196 -0.00334555
-1.34178e-016 3.00585e-019 -1.74707e-018
-1.58642e-016 -2.92259e-018 -1.2687e-018
-1.50767e-016 -3.13693e-018 -1.75889e-018
6.92661e-031 2.55605e-030 -5.84315e-032
-0.158826 -0.460219 -0.00218043
3.87445e-030 1.8712e-029 7.75741e-032
1.45471e-030 6.9399e-030 -1.28658e-031
-0.0913614 -0.33537 0.00651372
4.40158e-030 -3.97806e-030 -2.64837e-029
-4.10004e-017 -1.96712e-016 6.84253e-018