# vtk DataFile Version 2.0 
output.vtk, Created by Freefem++, via gregorio
ASCII
DATASET UNSTRUCTURED_GRID
POINTS 7451 double
-3.79965 2.23652 0.040848
-4.13429 2.05574 0.276253
-4.09122 2.24524 0.070091
-4.01836 2.27766 0.330071
-3.96697 2.14613 0.158551
-3.94543 2.24088 0.0554695
-3.90901 2.25709 0.185459
-4.11275 2.15049 0.173172
-4.07633 2.1667 0.303162
-4.05479 2.26145 0.200081
-4.81817 0.732763 -0.840268
-4.76136 0.37264 -0.736193
-5.12328 0.495929 -0.550642
-4.73872 0.559667 -0.434419
-4.78977 0.552702 -0.788231
-4.97072 0.614346 -0.695455
-4.77845 0.646215 -0.637344
-4.94232 0.434285 -0.643417
-4.75004 0.466153 -0.585306
-4.931 0.527798 -0.49253
-7.58244 -0.891248 -0.453516
-8 -0.559587 0.124298
-7.26059 -0.264226 0.250847
-7.58828 -0.999993 0.00381
-7.79122 -0.725418 -0.164609
-7.42152 -0.577737 -0.101334
-7.58536 -0.94562 -0.224853
-7.6303 -0.411906 0.187573
-7.79414 -0.77979 0.064054
-7.42444 -0.632109 0.127328
-5.46564 0.048234 0.998836
-5.51396 -0.351144 0.936321
-5.02851 -0.125769 0.598961
-5.56665 -0.148801 0.504295
-5.4898 -0.151455 0.967578
-5.24708 -0.0387675 0.798898
-5.51614 -0.0502835 0.751565
-5.27124 -0.238457 0.767641
-5.5403 -0.249972 0.720308
-5.29758 -0.137285 0.551628
-4.20269 -2.80441 0.102764
-3.63085 -2.57461 -0.287529
-4.13183 -2.29387 0.255347
-4.14432 -2.47254 -0.273935
-3.91677 -2.68951 -0.0923825
-4.16726 -2.54914 0.179055
-4.1735 -2.63848 -0.0855855
-3.88134 -2.43424 -0.016091
-3.88759 -2.52358 -0.280732
-4.13807 -2.38321 -0.009294
-6.25062 -0.085247 0.575431
-6.51584 -0.423084 -0.15939
-6.46019 0.447486 0.293263
-6.75561 -0.174737 0.413139
-6.38323 -0.254165 0.20802
-6.35541 0.181119 0.434347
-6.88822 -0.343655 0.0457285
-6.86039 0.09163 0.272055
-6.48801 0.012201 0.0669365
-4.88162 0.371746 0.655425
-4.51246 -0.112716 0.623981
-4.65723 0.09269 0.995695
-4.69704 0.129515 0.639703
-4.95507 0.122989 0.627193
-4.76942 0.232218 0.82556
-4.77049 -0.119243 0.611471
-4.58484 -0.010013 0.809838
-4.84287 -0.0165395 0.797328
-3.75099 1.20677 0.090288
-3.64118 0.745776 0.266863
-4.09568 0.790235 0.315934
-3.78936 1.07086 0.69071
-3.69609 0.976272 0.178575
-3.92333 0.998502 0.203111
-3.77017 1.13882 0.390499
-3.86843 0.768006 0.291399
-3.71527 0.908319 0.478787
-3.94252 0.930549 0.503322
-2.18572 0.40145 0.915881
-1.75478 0.245881 0.526965
-1.94554 -0.013967 0.999902
-1.76886 0.356252 0.93439
-1.97025 0.323665 0.721423
-2.06563 0.193741 0.957891
-1.97729 0.378851 0.925135
-1.85016 0.115957 0.763433
-1.76182 0.301067 0.730678
-1.8572 0.171143 0.967146
-5.06116 0.824959 0.710182
-4.88551 0.773989 0.80113
-4.92155 0.772883 0.437198
-5.01596 0.602336 0.857802
-4.97333 0.799474 0.755656
-4.99135 0.798921 0.57369
-5.03856 0.713647 0.783992
-4.90353 0.773436 0.619164
-4.95074 0.688163 0.829466
-4.96876 0.687609 0.6475
-2.34262 2.51752 0.051733
-2.4672 2.85727 -0.311185
-2.29554 2.81673 0.086134
-2.65762 2.74748 0.16058
-2.40491 2.6874 -0.129726
-2.31908 2.66712 0.0689335
-2.50012 2.6325 0.106157
-2.38137 2.837 -0.112526
-2.56241 2.80238 -0.0753025
-2.47658 2.7821 0.123357
-3.50303 -3.76846 -0.636668
-3.49422 -3.29308 -1.15018
-3.31427 -3.71149 -1.25136
-2.90724 -3.34218 -0.858121
-3.49863 -3.53077 -0.893424
-3.40865 -3.73997 -0.944014
-3.20514 -3.55532 -0.747394
-3.40425 -3.50228 -1.20077
-3.20073 -3.31763 -1.00415
-3.11076 -3.52683 -1.05474
-4.0054 2.49156 -0.125899
-3.5956 2.50054 -0.194198
-3.83412 2.54803 0.0159
-3.8005 2.49605 -0.160049
-3.90253 2.36404 -0.0425255
-3.91976 2.5198 -0.0549995
-3.69763 2.36853 -0.076675
-3.71486 2.52428 -0.089149
-3.81689 2.39228 0.028374
-3.73452 -3.68531 -1.05781
-3.52439 -3.6984 -1.15459
-3.61437 -3.4892 -1.104
-3.61877 -3.72688 -0.84724
-6.37864 0.944563 0.328331
-6.25891 0.813305 0.581838
-6.65332 0.772267 0.635298
-6.31878 0.878934 0.455085
-6.41941 0.696025 0.310797
-6.51598 0.858415 0.481815
-6.35955 0.630395 0.43755
-6.45612 0.792786 0.608568
-6.55675 0.609877 0.46428
1.62066 -0.841518 -0.540229
1.89324 0.238579 -0.195511
2.01627 -0.690819 -0.723027
2.25185 -0.211859 0.261412
1.75695 -0.30147 -0.36787
1.81846 -0.766169 -0.631628
1.93625 -0.526689 -0.139408
1.95475 -0.22612 -0.459269
2.07254 0.01336 0.0329505
2.13406 -0.451339 -0.230807
-2.56949 2.06853 0.305158
-2.91403 1.60744 0.564909
-3.02709 2.08175 0.021586
-2.87501 2.07662 0.630995
-2.74176 1.83799 0.435033
-2.79829 2.07514 0.163372
-2.72225 2.07258 0.468077
-2.97056 1.8446 0.293247
-2.89452 1.84203 0.597952
-2.95105 2.07919 0.32629
-5.39985 0.358755 0.933432
-5.34934 0.453264 0.543553
-5.56264 0.558471 0.829524
-5.70805 0.297641 0.954678
-5.37459 0.40601 0.738492
-5.48124 0.458613 0.881478
-5.55395 0.328198 0.944055
-5.45599 0.505868 0.686538
-5.52869 0.375452 0.749116
-5.63535 0.428056 0.892101
-4.17913 0.323834 -0.696515
-4.36183 0.516245 -0.417662
-4.60784 0.019305 -0.528365
-4.46586 0.364911 -0.72315
-4.27048 0.42004 -0.557088
-4.39349 0.17157 -0.61244
-4.3225 0.344372 -0.709832
-4.48483 0.267775 -0.473013
-4.41384 0.440578 -0.570406
-4.53685 0.192108 -0.625757
-5.9377 0.438799 -0.558905
-5.87927 0.529091 -0.848565
-6.25926 0.555743 -0.831354
-6.07929 0.245277 -0.969453
-5.90849 0.483945 -0.703735
-6.09848 0.497271 -0.695129
-6.00849 0.342038 -0.764179
-6.06927 0.542417 -0.839959
-5.97928 0.387184 -0.909009
-6.16928 0.40051 -0.900404
-3.64743 2.72944 0.180305
-3.74077 2.63873 0.0981025
-3.72354 2.48298 0.110576
-3.62151 2.61499 -0.0069465
-3.98168 0.388062 0.141859
-3.76543 0.320245 0.603448
-3.81143 0.566919 0.204361
-3.70331 0.533011 0.435156
-4.03868 0.589149 0.228897
-3.87356 0.354154 0.372653
-3.93055 0.55524 0.459691
-6.17342 0.027823 -0.593282
-6.59748 0.255766 -0.966739
-6.35964 0.547779 -0.240473
-6.21634 0.291783 -0.712318
-6.42837 0.405755 -0.899047
-6.30945 0.551761 -0.535914
-6.38545 0.141794 -0.78001
-6.26653 0.287801 -0.416878
-6.47856 0.401772 -0.603606
-5.98474 0.742767 -0.66955
-5.96122 0.590783 -0.614227
-6.122 0.649255 -0.750452
-5.93201 0.635929 -0.759057
-5.86659 0.345457 -0.129882
-5.96054 -0.099592 -0.035866
-6.02 0.18664 -0.361582
-6.11312 0.446618 -0.185177
-5.91357 0.122933 -0.082874
-6.06698 -0.0358845 -0.314574
-6.16009 0.224094 -0.13817
-1.10421 0.363269 -0.931684
-0.773878 0.737644 -0.67519
-0.520452 0.269543 -0.962988
-0.384634 0.008888 -0.353445
-0.939043 0.550457 -0.803437
-0.812329 0.316406 -0.947336
-0.74442 0.186079 -0.642564
-0.647165 0.503594 -0.819089
-0.579256 0.373266 -0.514317
-0.452543 0.139215 -0.658216
-2.85287 -3.00249 -1.21636
-3.23054 -2.92385 -1.196
-3.06719 -3.3306 -1.25351
-2.88006 -3.17233 -1.03724
-3.06889 -3.13301 -1.02706
-2.98722 -3.33639 -1.05581
-3.0417 -2.96317 -1.20618
-2.96003 -3.16654 -1.23493
-3.14886 -3.12722 -1.22475
-3.38618 -2.05134 -0.098565
-2.37808 -2.56123 -0.134541
-2.49252 -2.47812 0.422472
-2.41131 -1.89586 0.044632
-2.88213 -2.30628 -0.116553
-2.93935 -2.26473 0.161954
-2.89875 -1.9736 -0.0269665
-2.4353 -2.51967 0.143966
-2.39469 -2.22855 -0.0449545
-2.45192 -2.18699 0.233552
-1.85713 -0.413967 0.42138
-1.65927 -0.390905 0.920431
-1.2503 -0.077569 0.384148
-1.80595 -0.084043 0.474172
-1.70702 -0.072512 0.723698
-1.50254 0.084156 0.455557
-1.7582 -0.402436 0.670905
-1.55371 -0.245768 0.402764
-1.45478 -0.234237 0.652289
-2.09043 2.55218 0.167395
-2.0659 2.66009 -0.048555
-2.19298 2.68445 0.126765
-2.18072 2.73841 0.0187895
-2.07816 2.60614 0.05942
-2.21652 2.53485 0.109564
-2.20426 2.58881 0.001589
-4.01665 2.44382 0.136481
-3.97233 2.67361 0.084512
-3.92539 2.49592 0.0761905
-3.99449 2.55872 0.110496
-4.01103 2.46769 0.005291
-3.90323 2.61082 0.050206
-3.98887 2.58259 -0.0206935
-3.92754 1.80484 -0.220103
-4.28096 1.83407 -0.225431
-4.13592 1.88983 -0.461486
-4.146 2.03152 -0.278406
-4.10425 1.81945 -0.222767
-4.03173 1.84734 -0.340795
-4.03677 1.91818 -0.249254
-4.20844 1.86195 -0.343458
-4.21348 1.9328 -0.251918
-4.14096 1.96068 -0.369946
-4.04038 -5 0.949212
-3.62468 -5 1.26221
-3.84559 -4.54287 1.07336
-3.71487 -5 0.728948
-3.83253 -5 1.10571
-3.94299 -4.77144 1.01129
-3.87763 -5 0.83908
-3.73513 -4.77144 1.16779
-3.66977 -5 0.99558
-3.78023 -4.77144 0.901156
-1.37334 0.812082 -0.583544
-0.975724 0.961208 -0.275823
-1.19336 -0.166381 -0.273753
-1.17453 0.886645 -0.429683
-1.07361 0.774863 -0.629367
-1.28335 0.32285 -0.428648
-0.874801 0.849426 -0.475506
-1.08454 0.397413 -0.274788
-0.983618 0.285631 -0.474471
-3.83515 -1.82017 -0.741539
-3.34976 -1.58414 -0.592596
-3.50394 -2.07825 -1.02313
-3.59245 -1.70215 -0.667067
-3.66955 -1.94921 -0.882335
-3.61067 -1.93575 -0.420052
-3.42685 -1.83119 -0.807863
-3.36797 -1.81774 -0.345581
-3.44506 -2.06479 -0.560848
-2.72946 0.769161 0.094533
-2.75119 0.681139 -0.326037
-2.98528 1.02631 -0.281501
-3.08113 0.734324 -0.34324
-2.74032 0.72515 -0.115752
-2.85737 0.897737 -0.093484
-2.90529 0.751742 -0.124353
-2.86823 0.853726 -0.303769
-2.91616 0.707731 -0.334639
-3.03321 0.880319 -0.31237
-2.94023 -2.47675 -0.674772
-3.14499 -2.03044 -0.633684
-3.22209 -2.2775 -0.848951
-3.16321 -2.26404 -0.386669
-3.03914 -4.25341 0.579285
-2.64287 -3.80807 0.20828
-2.47531 -4.18593 0.714333
-2.97264 -3.41482 0.618231
-2.84101 -4.03074 0.393783
-2.75723 -4.21967 0.646809
-3.00589 -3.83412 0.598758
-2.55909 -3.997 0.461307
-2.80776 -3.61144 0.413255
-2.72397 -3.80037 0.666282
-2.39684 -0.595487 -0.803365
-1.98884 -0.54749 -0.836812
-2.24172 -0.466498 -0.098067
-2.21295 -0.01831 -0.514797
-2.19284 -0.571489 -0.820088
-2.31928 -0.530992 -0.450716
-2.3049 -0.306899 -0.659081
-2.11528 -0.506994 -0.46744
-2.1009 -0.2829 -0.675804
-2.22734 -0.242404 -0.306432
-3.36239 -4.55484 -1.31864
-3.11171 -4.25429 -0.873787
-2.86199 -4.55394 -1.36046
-2.79118 -5 -0.96439
-3.23705 -4.40456 -1.09621
-3.11219 -4.55439 -1.33955
-3.07678 -4.77742 -1.14151
-2.98685 -4.40411 -1.11712
-2.95144 -4.62714 -0.919088
-2.82658 -4.77697 -1.16243
-3.88203 2.65205 -0.416886
-3.48121 2.84727 -0.340672
-3.82273 3 -0.474998
-3.72541 2.76868 -0.627028
-3.68162 2.74966 -0.378779
-3.85238 2.82603 -0.445942
-3.80372 2.71037 -0.521957
-3.65197 2.92364 -0.407835
-3.60331 2.80798 -0.48385
-3.77407 2.88434 -0.551013
[...]
POINT_DATA 7451
 
FIELD FieldData 2
velocity 3 7451 double
-0.122625 -0.347751 0.00968774
1.65882e-030 3.74662e-030 -2.09165e-031
4.80889e-031 1.31142e-030 -6.17882e-032
1.38772e-030 3.73005e-030 -1.91028e-031
-0.0835201 -0.203976 0.0115874
-0.072704 -0.200003 0.00937359
-0.0804393 -0.232774 0.0124316
-1.87667e-018 -4.54978e-018 3.1868e-019
5.67901e-018 1.41489e-017 -1.11959e-018
2.02135e-029 -8.67693e-030 -4.71286e-030
9.58632e-030 3.19082e-030 -2.19106e-031
-0.411506 -0.109226 0.0011121
-0.627551 -0.14254 0.00757695
-0.707615 -0.230778 0.00632833
-0.227346 -0.0769265 0.0070921
-0.306721 -0.0931488 0.00992621
-0.405982 -0.146873 0.00948256
-0.535798 -0.134266 0.00707072
-0.593591 -0.174518 0.00543653
-0.677148 -0.192605 0.00859139
1.02917e-028 -3.1905e-031 2.96874e-032
-0.84893 0.00733381 -0.000630226
-1.10743 5.26022e-005 -0.000611481
5.94231e-029 -2.39645e-031 5.73948e-032
-0.552864 0.00344812 7.95445e-005
-0.837121 1.5885e-005 -0.0025354
-1.34549e-016 2.51118e-019 -3.15683e-019
-1.00969 0.001293 -7.96628e-005
-0.480034 0.00635727 -0.000800216
-0.74329 0.00192662 -0.000179216
3.50133e-029 3.61817e-030 6.18471e-032
2.30511e-029 1.4703e-030 2.97491e-031
-0.7015 -0.105055 -0.0136604
-0.886717 -0.0624281 -0.00506733
-1.47416e-016 -5.98811e-018 -1.45011e-018
-0.423435 -0.0481718 -0.00388726
-0.527196 -0.033542 -0.00348537
-0.404174 -0.0313237 -0.00753473
-0.506315 -0.0232537 -0.00486988
-0.799772 -0.0860382 -0.00845062
-4.48511e-030 -6.86667e-029 2.15954e-030
0.0260507 0.422516 0.00294568
-4.89825e-030 -8.17072e-029 2.71277e-030
-8.61753e-031 -1.02508e-029 6.24335e-034
0.0234638 0.286822 -0.00372453
-5.1843e-017 -5.77785e-016 1.8551e-017
-3.97122e-018 -4.00933e-017 5.59681e-019
0.0265884 0.340271 -0.00575146
0.0219423 0.251351 0.000633811
-5.70956e-017 -6.11658e-016 1.05981e-017
-0.832602 -0.0163684 -0.00239196
-1.00571 -0.00959453 -0.00226223
-0.905292 -0.013004 -0.000899023
-1.01285 -0.00261314 -0.000990415
-1.13479 -0.0173451 -0.00318963
-0.987194 -0.0172465 -0.00228264
-1.11866 -0.00468013 -0.00387877
-1.17282 -0.00249986 -0.000471057
-1.2732 -0.0170192 -0.00154836
-0.564522 -0.186616 0.0045284
-0.570931 -0.101878 -0.0200379
1.99222e-029 5.44588e-030 2.09375e-031
-0.624699 -0.165452 -0.00817792
-0.690224 -0.154618 -0.00383337
-0.30996 -0.108663 0.00314658
-0.635958 -0.112113 -0.0187501
-0.342458 -0.0927553 -0.0101692
-0.390507 -0.0839626 -0.00820975
-0.430927 -0.455656 -0.0226553
-0.467352 -0.267751 -0.050788
-0.606898 -0.338235 -0.0150907
-0.239894 -0.301372 -0.000808239
-0.465926 -0.38778 -0.0396588
-0.520531 -0.399902 -0.0203568
-0.39466 -0.419525 -0.0165632
-0.554814 -0.311967 -0.0328155
-0.387479 -0.329463 -0.0249671
-0.423775 -0.336078 -0.00807424
-1.82716e-029 -6.93828e-030 1.26331e-030
0.348818 0.0528088 -0.00675137
-2.19337e-029 -6.62777e-030 -3.96783e-031
-4.63822e-030 -2.51969e-031 3.10974e-032
0.188259 0.0302701 -0.00642999
6.03097e-017 6.19605e-018 2.22425e-018
3.22309e-018 2.34314e-019 -3.2869e-020
0.213331 0.017925 -0.00150201
0.199095 0.011615 0.000882703
-6.92817e-017 -9.12699e-019 -8.02326e-019
2.49991e-017 1.16115e-017 -6.9339e-019
2.93485e-030 1.33779e-030 -5.57641e-032
-0.509135 -0.21088 0.00886892
3.13506e-030 1.28106e-030 -5.81768e-032
1.25054e-017 6.2605e-018 -3.86379e-019
-0.286791 -0.126808 0.00664142
1.54856e-016 6.94794e-017 -2.24032e-018
-0.28694 -0.138414 0.00765423
1.52445e-016 7.79059e-017 -3.36187e-018
-0.31648 -0.135086 0.0057327
-0.0332324 -0.23653 -0.0137421
-0.0204337 -0.251803 -0.00890625
-0.0125994 -0.235979 -0.00708912
-0.0524141 -0.498978 -0.0155344
-0.029016 -0.266684 -0.0113098
-0.023175 -0.237352 -0.0105958
-0.0456576 -0.378447 -0.0166036
-0.0188026 -0.269185 -0.00958057
-0.0381956 -0.394714 -0.0125932
-0.0321673 -0.383007 -0.0119482
0.0111673 0.272285 0.00818527
-6.84495e-031 -2.22337e-029 -1.12555e-030
-3.42294e-031 -1.70497e-029 -9.60465e-031
-0.00171777 0.228761 0.0129796
0.00636216 0.146308 0.00814586
0.00548142 0.143505 0.00816276
0.00465682 0.278393 0.0117773
2.34959e-029 2.3707e-030 6.82641e-029
0.00211756 0.136976 0.00927755
0.00107016 0.118074 0.00834476
1.0246e-030 3.77341e-030 -1.07533e-031
-0.0907741 -0.37143 0.00397386
-0.0485818 -0.229688 0.00505116
-0.0581583 -0.233516 0.0063527
-0.0604104 -0.194358 0.00626837
-0.0276674 -0.117341 0.00344945
-0.110596 -0.372131 0.00595221
-0.0762212 -0.329827 0.00575071
-0.0825623 -0.287336 0.00768519
-2.76917e-031 -4.99865e-030 -2.45595e-031
-3.6082e-018 -6.99989e-017 -5.19304e-018
3.53641e-018 6.25879e-017 4.54853e-018
0.00761511 0.138386 0.00674264
1.09215e-029 1.86607e-031 1.9495e-033
1.44698e-029 2.41814e-031 1.69473e-032
1.88775e-029 2.00848e-031 4.59367e-032
6.95917e-017 1.53905e-018 8.3419e-020
-0.521188 -0.0128289 -0.000489859
-5.27289e-030 -4.78313e-029 -2.41602e-029
-0.511667 -0.00650468 -0.000655144
-1.81841e-017 8.20373e-019 -3.8589e-020
-0.520732 -0.0058718 -0.00102468
-1.59339e-028 4.01413e-031 -7.71659e-032
0.48589 0.000581799 0.000721681
-5.8919e-029 3.9839e-032 -1.38888e-031
0.473379 -0.00219495 0.00130751
0.41652 -0.00125943 0.000283777
-6.67992e-017 3.32165e-020 -3.05065e-019
0.375871 -0.000215365 0.00136298
0.394032 0.000709825 0.000858366
0.536147 -0.00104216 0.00163632
0.397416 -0.00114894 0.00174137
-0.0806359 -0.330919 -0.0294654
-0.119241 -0.346642 -0.0350233
-0.17135 -0.534203 -0.026514
-0.0915097 -0.417485 -0.0220643
-0.107501 -0.36623 -0.0354341
-0.135158 -0.483152 -0.0343334
-0.0942343 -0.404695 -0.0304622
-0.17912 -0.520641 -0.0387099
-0.108928 -0.389407 -0.0290965
-0.152816 -0.554093 -0.0321537
3.30326e-030 4.3575e-031 -7.21197e-032
-0.669669 -0.123947 0.00998757
7.1435e-030 5.72322e-031 -1.24927e-031
3.17157e-029 2.11667e-030 -1.61944e-031
-0.377287 -0.0499161 0.0102395
-9.80396e-017 -7.73111e-018 3.3957e-018
1.36415e-016 6.1327e-018 -3.93474e-018
-0.364849 -0.0441759 0.00886161
-0.380801 -0.0310851 0.00696253
-2.22411e-017 -6.94943e-019 7.72861e-019
-0.40423 -0.101659 -0.0145465
-0.687762 -0.233366 -0.0113046
-0.729827 -0.112751 -0.00683975
-0.40951 -0.117974 -0.00507883
-0.567821 -0.169837 -0.0140339
-0.583574 -0.118182 -0.011481
-0.411476 -0.114098 -0.00958436
-0.744422 -0.174873 -0.0115056
-0.579481 -0.181506 -0.00653527
-0.594457 -0.127373 -0.00633284
-0.628103 -0.0135463 0.00196515
3.55396e-030 4.15086e-032 -7.4979e-033
3.16598e-029 3.84796e-031 -1.63441e-031
1.45764e-029 1.95574e-031 -2.97809e-032
-0.338454 -0.00334253 0.00131342
-0.335992 -0.00628281 0.00284645
-0.366592 -0.00422305 0.00203984
-2.40071e-016 -1.89995e-018 2.1165e-018
-1.15738e-016 -2.34571e-019 1.0528e-018
-1.17088e-029 -2.26952e-029 5.09502e-029
-0.0588951 -0.397646 0.00553486
-0.0558379 -0.32091 0.00570941
-0.08682 -0.369739 0.00679962
-0.0795044 -0.413127 0.0042111
-0.742696 -0.156435 -0.0446265
-0.409704 -0.0376607 -0.0218858
-0.605256 -0.207664 -0.0505003
-0.464763 -0.146808 -0.0412638
-0.695985 -0.265905 -0.031889
-0.615738 -0.0990537 -0.0381647
-0.548028 -0.210956 -0.0234601
-0.812989 -0.0103076 0.000550854
-3.67377e-017 4.34863e-020 8.29471e-020
-0.813354 -0.00909487 0.00354313
-0.508172 -0.00732816 0.00302042
-2.65246e-029 -3.24219e-029 6.39523e-029
-0.508225 -0.00580951 0.00457759
-0.461704 -0.00796921 0.00171929
-0.944411 -0.0126254 0.00308001
-0.591983 -0.00285257 0.00304234
5.7436e-030 1.00037e-031 -9.40052e-033
-0.343043 -0.0064285 0.00204963
-7.74298e-017 -1.25976e-018 8.30236e-019
-1.02259e-016 -8.34308e-019 6.62484e-019
-1.1161 -0.0514203 0.00294875
-1.25091 -0.041849 -0.00322192
-1.06266 -0.0266062 0.000724685
-0.981051 -0.022444 0.00354727
-1.24879 -0.0507574 0.000248712
-1.14139 -0.026282 -0.00144852
-1.18988 -0.0274428 0.00150241
1.98612e-017 -1.52753e-019 -3.13982e-019
-5.19699e-029 4.96342e-031 5.02372e-031
-1.92663e-029 5.73153e-032 1.00513e-031
0.477003 -0.00457026 -0.000861878
-3.05534e-017 2.81236e-019 4.43353e-019
1.4312e-029 -3.43615e-029 1.03873e-028
0.291222 -0.00293028 -0.00291666
-3.14756e-017 1.02719e-019 3.20875e-019
0.325872 -0.00363368 -0.00231991
0.294291 0.000103018 -0.00200184
8.24062e-032 -7.75617e-030 -6.06707e-031
-3.40341e-031 -2.38154e-029 -1.43846e-030
-5.94931e-033 -2.8735e-030 -2.14394e-031
-0.00125128 0.120385 0.00925628
0.00196619 0.127362 0.0101154
2.41895e-005 0.1161 0.00812765
-6.98904e-019 1.41979e-030 5.59357e-029
-8.17578e-020 2.71127e-017 2.41898e-018
6.32663e-019 -5.73237e-017 -5.21949e-018
0.0214983 0.69552 -0.00775735
-0.0251819 0.504052 -0.00183351
-0.0276031 0.716706 -0.0387951
-0.0277625 0.648294 -0.0188223
-0.00715534 0.738297 -0.00512001
-0.00369724 0.893905 -0.0276572
-0.00635068 0.840499 -0.0165773
-0.027713 0.658269 -0.0171327
-0.0266581 0.57788 -0.00770437
-0.0290469 0.710676 -0.0303311
0.366597 0.162134 0.0246689
-2.81561e-029 -1.86469e-030 -2.08653e-031
0.456433 0.0153149 -0.00232886
0.408753 0.106311 -0.000231507
0.24634 0.00816897 -0.000850187
0.422689 0.0335477 -0.00201387
0.195195 0.0055885 0.00934601
0.412605 0.0529255 -0.0010584
0.26822 0.00134263 -0.00299188
-1.95528e-018 -2.71787e-017 -1.22816e-018
1.17288e-031 1.33191e-030 6.53033e-032
-0.00755273 -0.120196 -0.00453784
-0.00808396 -0.115119 -0.0040145
-4.14646e-018 -5.21031e-017 -2.2239e-018
-0.0166123 -0.129786 -0.00752306
-0.0152902 -0.121844 -0.00788586
-7.43927e-018 -3.01022e-017 1.14132e-018
3.01608e-031 1.91418e-030 -4.11221e-032
-0.0312423 -0.133439 0.0042944
1.25074e-017 6.64426e-017 -1.65024e-018
2.17226e-029 -7.15021e-030 -1.28097e-031
-0.0212127 -0.13102 0.00194719
2.18396e-017 1.18587e-016 -2.55001e-018
-0.184168 -0.295503 0.00827849
1.56945e-030 2.19345e-030 -1.23889e-031
7.39585e-031 1.1863e-030 -6.08047e-032
5.55186e-031 9.64993e-031 -5.11198e-032
-0.113087 -0.170176 0.00970223
-0.103305 -0.165048 0.00849343
-0.100224 -0.169912 0.00881299
-5.15301e-017 -7.77137e-017 5.82687e-018
-2.86739e-016 -4.54933e-016 3.40035e-017
-1.97965e-016 -3.32548e-016 2.33896e-017
-1.43355e-031 -4.41226e-030 1.96075e-031
-2.2531e-031 -1.31221e-029 6.25194e-031
-6.8433e-031 -2.22054e-029 1.2544e-030
0.0101767 0.415761 -0.0152199
-3.64859e-018 -1.7092e-016 8.1602e-018
-5.88452e-019 -1.9297e-017 1.02816e-018
0.00658263 0.251039 -0.00987235
3.25027e-018 1.31539e-016 -2.10781e-018
0.00615237 0.315052 -0.0148396
0.00911165 0.304641 -0.0162685
-6.00503e-029 -5.79556e-032 1.34314e-030
-6.3074e-029 4.08087e-031 6.77078e-031
0.480748 -0.0115589 0.00012307
2.52813e-017 3.56699e-020 -6.35827e-019
-2.75013e-017 1.55146e-019 6.1918e-019
0.38397 -0.00315039 -0.00819897
-6.25123e-017 5.4123e-019 6.13019e-019
0.420388 -0.00183334 -0.00592375
0.370419 -0.00552884 -0.00331233
5.9511e-020 9.01267e-019 4.43738e-020
0.00716673 0.401238 0.0163293
-2.30368e-030 -6.43305e-029 -2.24013e-030
0.00822861 0.219306 0.0106065
-8.93401e-018 -7.14651e-017 -9.59215e-018
0.0195767 0.388964 0.00865032
0.007537 0.187864 0.0124739
0.014784 0.579906 0.00794218
0.0157359 0.380284 0.0138439
0.0201443 -0.0571167 -0.0514355
0.0191994 -0.0110553 -0.0339141
-0.128936 -0.209353 -0.0355558
-0.135635 -0.100869 -0.0472876
0.0179103 -0.0449018 -0.0473169
-0.061967 -0.160584 -0.0467921
-0.0627922 -0.103508 -0.0565128
-0.0455113 -0.0933454 -0.0321375
-0.0514389 -0.0538316 -0.0410813
-0.126441 -0.158571 -0.0419718
-0.00171373 0.366646 0.0169422
0.0069036 0.411719 0.0171649
0.0072291 0.227354 0.0137337
0.00903719 0.571011 0.0102024
0.000659913 0.673377 -0.0324228
-0.015855 0.660647 -0.0185614
-0.0173672 0.547603 -0.0341697
-0.000636872 0.750716 -0.0470313
-0.00826447 0.715608 -0.0259911
-0.00977257 0.667816 -0.0361262
0.000344065 0.713033 -0.0405016
-0.0187719 0.649142 -0.0274037
-0.0102904 0.749689 -0.0303369
-0.0128763 0.683796 -0.0419201
1.78331e-017 5.38357e-017 3.75657e-018
5.69388e-017 1.41286e-018 9.75539e-020
0.401774 0.439086 -0.0212131
0.302127 0.107205 -0.0259853
1.47261e-029 3.9709e-029 4.49044e-029
0.26582 0.29278 -0.0147837
0.201744 0.112078 -0.0179851
0.299567 0.167782 -0.0169349
0.231707 0.0572666 -0.0124573
0.385094 0.24982 -0.0291842
8.04573e-019 2.11429e-017 1.63718e-018
0.00198952 0.209464 0.00805402
2.04669e-031 -1.44037e-029 -5.19048e-031
-0.00166531 0.155875 0.00232685
0.00230912 0.0999757 0.00570011
1.34006e-018 3.34181e-017 4.44822e-018
0.000571048 0.0894182 0.00314787
-5.00379e-005 0.0998137 0.00531554
-0.000658842 0.186492 0.00438979
-0.00105613 0.078376 0.00273728
6.71502e-031 3.63158e-030 -7.578e-032
-0.04146 -0.322325 0.00194009
6.24649e-031 1.16449e-029 -1.11232e-031
1.07213e-030 5.31044e-030 -9.48353e-032
-0.0278458 -0.190274 0.00366727
-2.86002e-017 -2.42985e-016 5.4453e-018
2.41627e-029 -5.25958e-030 1.68471e-029
-0.0179791 -0.184093 0.00208068
-0.0258157 -0.176638 0.00175175
-2.28947e-017 -1.98097e-016 2.84129e-018
0.517099 -0.000285779 -0.000178739
-2.19656e-029 2.75917e-032 -4.79251e-033
-2.28385e-029 1.44372e-032 4.44566e-033
-3.89044e-029 5.34504e-032 7.05857e-033
0.347461 0.00013556 -8.70041e-005
0.349081 -0.000132726 -0.000229855
0.347018 -0.000302338 6.11464e-005
1.53883e-029 -6.47144e-020 1.01026e-019
1.39536e-029 4.21063e-021 -1.11948e-020
2.53768e-017 -1.69454e-020 -1.49977e-030
0.201954 0.746565 -0.0467098
-0.0111755 0.790446 -0.0293263
-0.0170529 0.929338 -0.0900284
0.036096 0.707645 -0.00581709
0.0920948 0.894087 -0.0539737
0.0691075 0.880174 -0.0777477
0.136452 0.837382 -0.0403071
-0.0175617 0.973339 -0.0674669
0.0524975 0.809156 -0.0200553
0.0434922 0.977416 -0.0585248
-8.23166e-029 1.18058e-031 2.3098e-032
-4.84624e-029 9.17623e-032 9.34903e-032
-6.01832e-029 4.81439e-031 -5.68522e-032
0.472895 -0.0038614 0.000153371
1.97259e-017 1.05328e-019 -9.7764e-020
3.84588e-019 -4.43172e-022 -4.69494e-022
0.37324 4.8615e-005 -0.00126347
9.07908e-019 -2.15652e-022 3.7366e-030
0.333196 0.000530236 -0.000989166
0.379286 -0.00257401 0.000710144
8.91145e-030 5.19739e-030 -2.71422e-031
-0.394558 -0.24015 0.0117479
3.03437e-030 1.80209e-030 -1.13246e-031
-0.268687 -0.172511 0.0101524
-0.260699 -0.139662 0.00813223
5.74069e-016 3.8726e-016 -2.91965e-017
-0.452024 -0.228804 0.0102335
-0.237604 -0.15602 0.0114376
-0.250336 -0.137797 0.00814414
-0.841158 0.000947869 0.00603257
1.94898e-028 -2.54239e-031 -2.86328e-031
1.44822e-029 -9.46827e-032 -1.81105e-031
-0.840097 0.00521247 0.00298667
-0.556646 0.00279157 0.00282133
-0.501295 -0.000362433 0.0063764
-0.930042 0.00411575 0.00362875
-2.50235e-029 3.54881e-029 6.60316e-029
-0.473428 0.00440463 0.00198026
-0.505892 0.00647704 0.00357628
-3.91854e-029 3.405e-031 1.99869e-031
-1.43487e-029 1.9861e-031 1.6257e-031
-2.21668e-029 -9.81056e-031 -8.90013e-033
-4.55213e-017 1.95872e-018 3.1313e-019
-1.17792e-018 1.66211e-020 3.46443e-020
0.297394 -0.00206123 -0.00130809
-1.61548e-017 3.90958e-019 5.52746e-019
0.274491 -0.0050689 -0.00222036
0.283834 0.00473751 -0.0102389
-8.59999e-029 1.4199e-030 -3.26503e-031
0.381468 -0.00639553 0.000710946
0.319193 -0.00979016 0.00214811
0.345782 -0.00697326 0.000834069
0.530866 -0.00838057 0.000112424
0.548626 -0.00563957 -8.73508e-005
0.483166 -0.0104515 -0.000471405
-1.87876e-029 -2.36714e-031 3.22084e-032
-3.52775e-029 4.32515e-031 -2.1962e-032
5.3621e-017 -2.50919e-018 -2.97595e-019
4.69014e-017 -1.89936e-018 -3.2948e-019
0.278687 -0.00248019 -0.000747603
4.20129e-018 -2.04966e-019 -4.84788e-020
0.286516 -0.00350923 -0.00278414
-6.58157e-029 2.78793e-031 2.67726e-031
0.472547 0.00157556 -0.000704748
-4.3779e-029 1.55309e-031 1.13333e-031
0.289211 -0.00154886 -0.000826293
-9.74154e-017 1.63071e-019 6.98767e-019
0.370198 -0.00306616 -0.00187092
0.300858 -0.000111225 -0.000780696
0.495393 -0.00159307 -0.000800212
0.317866 0.000604607 -0.00218316
-1.76005e-029 1.33021e-031 -1.41703e-031
-5.18527e-029 7.77897e-033 -3.38534e-031
-6.03842e-029 3.2857e-031 -2.91888e-031
3.33415e-017 -5.27247e-019 8.29233e-019
-3.58714e-017 6.07266e-019 -7.95167e-019
0.292346 -0.00385906 0.00573538
-2.34328e-017 3.2531e-019 -3.8493e-019
0.30403 -0.00292633 0.0038641
0.303778 -0.00332327 0.00288602
1.49235e-030 -8.68793e-030 4.76937e-031
-0.180473 0.117418 -0.0216509
2.06407e-030 -3.98292e-030 6.10163e-031
0.0750214 0.217262 -0.0290484
-0.0600336 0.0856894 -0.00565677
1.89071e-018 6.97259e-018 1.89734e-020
0.00878758 0.137779 -0.00697782
-0.0681465 0.0435078 -0.00511714
-0.0687013 0.180794 -0.0235839
-0.00394263 0.0772513 -0.00787416
-7.09282e-030 -3.93918e-030 -8.93569e-031
-5.7158e-029 -7.85171e-030 -1.19664e-030
-9.7183e-030 -2.11606e-029 2.7884e-031
0.204939 0.0454196 0.0361652
0.243274 0.0880408 0.0219737
0.25629 0.198588 0.0516656
3.00095e-030 5.56395e-029 -3.43954e-029
5.60826e-017 5.33383e-017 1.30192e-017
-6.97308e-017 -4.53226e-017 -1.35166e-017
-2.30414e-029 -2.12658e-031 6.94097e-032
-1.34942e-017 -2.15323e-029 -6.42938e-020
5.21925e-017 -1.60312e-018 -4.58657e-020
0.309187 -0.00012086 0.00129677
-0.0938481 -0.265786 0.00281351
1.72004e-030 3.48966e-030 -5.71625e-032
-0.152788 -0.264378 -0.0045291
3.82723e-030 8.6056e-030 5.10542e-032
-0.0601972 -0.138104 0.00369163
-0.127364 -0.273809 -0.000676607
-0.0606157 -0.14618 0.00229069
-0.0840628 -0.152524 0.00169154
9.94512e-018 1.96247e-017 -4.71769e-019
-0.0734817 -0.139799 -0.000106515
-0.288133 -0.325354 -0.031657
-0.268942 -0.48652 -0.0343108
-0.118754 -0.184368 -0.0159835
-0.221617 -0.281869 -0.0388376
-0.28704 -0.416646 -0.0337746
-0.198071 -0.273141 -0.0257197
-0.224918 -0.3684 -0.0418347
-0.13375 -0.206982 -0.0226886
-0.212796 -0.364139 -0.0305963
0.470822 0.00160985 8.46502e-005
-1.03612e-028 -2.84059e-031 3.74165e-031
-4.24805e-029 -1.99914e-031 5.70672e-032
0.483977 0.00210305 -0.000744448
0.307142 0.00245546 -0.000899927
0.290254 0.00241449 0.000644378
0.490944 0.0025862 -0.0010684
4.52707e-029 -8.94444e-030 -1.12377e-028
0.401785 -0.00144769 -0.00159021
0.353341 -0.000375049 -0.000336983
-1.86071e-029 2.72755e-032 1.74177e-032
-4.93119e-029 1.44188e-032 -7.31443e-033
-9.20648e-029 4.79736e-032 5.34215e-032
1.41478e-029 5.07334e-029 8.94022e-029
0.294762 -0.000463159 -0.000207883
6.40194e-017 3.17979e-019 -3.3964e-020
0.323086 0.000662094 0.000444779
-3.03091e-017 -1.00824e-019 2.95784e-020
0.294857 -7.80013e-005 -0.000409333
-2.78767e-029 5.05451e-032 -3.31268e-032
-5.40633e-029 5.88664e-032 -1.16262e-031
0.512827 -0.000581597 0.000266899
-9.34118e-029 1.26419e-031 -2.2635e-031
8.38799e-017 -2.0943e-019 4.16218e-019
0.387087 -0.000886087 0.000775674
-6.61672e-017 3.72791e-019 -1.68548e-019
0.397829 -0.000724265 0.00198024
3.14257e-017 5.6883e-020 2.07935e-019
0.377425 -0.00226737 0.000652058
0.469908 0.00114984 -0.000622089
-1.03393e-028 4.35676e-032 1.05868e-031
0.539568 8.70293e-005 -7.09988e-005
0.344449 0.000250153 -0.000346039
0.472877 0.00199074 0.000424639
0.376534 -0.00155274 0.00111204
0.546211 0.0019707 -0.000950446
0.383176 0.00080431 -0.000344122
1.37545e-029 1.31738e-031 -1.08279e-031
-0.347541 -0.00529441 0.00475572
8.4126e-017 9.13048e-019 -3.27675e-018
-0.462757 -0.00486252 0.0048777
-0.755133 -0.0106629 0.00460471
1.33455e-030 -6.40479e-029 4.24783e-030
1.57e-031 -1.18244e-028 7.65683e-030
-0.00983323 0.690517 -0.0441689
0.000100397 0.699756 -0.0449224
-0.0122287 0.484041 -0.0327211
1.40043e-018 -9.48496e-017 6.40967e-018
-0.00810198 0.578606 -0.0376717
0.000627154 0.517393 -0.00394679
0.0119698 0.277628 0.00189823
0.00412037 0.524882 -0.00997402
0.000107134 0.353649 -0.000962906
0.00909738 0.424261 -0.000275842
0.00330021 0.523125 -0.00715324
0.000307006 0.439225 -0.00137791
0.00833359 0.416405 -0.0035798
0.00512239 0.342179 0.000358109
0.00184177 0.454135 -0.00430453
0.00721526 0.26716 0.00586066
0.00181656 0.375687 0.00470222
0.000911627 0.285005 0.00273995
9.02774e-029 1.67774e-030 7.2433e-031
1.51773e-028 3.054e-030 1.06187e-030
2.71078e-029 3.15631e-031 1.32048e-031
-0.631332 -0.00809688 -0.00370796
-0.595267 -0.00887708 -0.00594429
-0.594958 -0.0100231 -0.00361062
-1.35982e-016 3.44681e-019 -1.91196e-018
-1.60635e-016 -2.95824e-018 -1.37389e-018
-1.52627e-016 -3.13148e-018 -1.87046e-018
7.85396e-031 2.97561e-030 -6.53374e-032
-0.164582 -0.492157 -0.0042126
4.39112e-030 2.19079e-029 1.44633e-031
1.65217e-030 8.10795e-030 -1.46025e-031
-0.0952028 -0.358581 0.0065821
4.76726e-030 -4.48797e-030 -2.88113e-029
-4.30173e-017 -2.11003e-016 7.43569e-018