# vtk DataFile Version 2.0 
output.vtk, Created by Freefem++, via gregorio
ASCII
DATASET UNSTRUCTURED_GRID
POINTS 7451 double
-3.79965 2.23652 0.040848
-4.13429 2.05574 0.276253
-4.09122 2.24524 0.070091
-4.01836 2.27766 0.330071
-3.96697 2.14613 0.158551
-3.94543 2.24088 0.0554695
-3.90901 2.25709 0.185459
-4.11275 2.15049 0.173172
-4.07633 2.1667 0.303162
-4.05479 2.26145 0.200081
-4.81817 0.732763 -0.840268
-4.76136 0.37264 -0.736193
-5.12328 0.495929 -0.550642
-4.73872 0.559667 -0.434419
-4.78977 0.552702 -0.788231
-4.97072 0.614346 -0.695455
-4.77845 0.646215 -0.637344
-4.94232 0.434285 -0.643417
-4.75004 0.466153 -0.585306
-4.931 0.527798 -0.49253
-7.58244 -0.891248 -0.453516
-8 -0.559587 0.124298
-7.26059 -0.264226 0.250847
-7.58828 -0.999993 0.00381
-7.79122 -0.725418 -0.164609
-7.42152 -0.577737 -0.101334
-7.58536 -0.94562 -0.224853
-7.6303 -0.411906 0.187573
-7.79414 -0.77979 0.064054
-7.42444 -0.632109 0.127328
-5.46564 0.048234 0.998836
-5.51396 -0.351144 0.936321
-5.02851 -0.125769 0.598961
-5.56665 -0.148801 0.504295
-5.4898 -0.151455 0.967578
-5.24708 -0.0387675 0.798898
-5.51614 -0.0502835 0.751565
-5.27124 -0.238457 0.767641
-5.5403 -0.249972 0.720308
-5.29758 -0.137285 0.551628
-4.20269 -2.80441 0.102764
-3.63085 -2.57461 -0.287529
-4.13183 -2.29387 0.255347
-4.14432 -2.47254 -0.273935
-3.91677 -2.68951 -0.0923825
-4.16726 -2.54914 0.179055
-4.1735 -2.63848 -0.0855855
-3.88134 -2.43424 -0.016091
-3.88759 -2.52358 -0.280732
-4.13807 -2.38321 -0.009294
-6.25062 -0.085247 0.575431
-6.51584 -0.423084 -0.15939
-6.46019 0.447486 0.293263
-6.75561 -0.174737 0.413139
-6.38323 -0.254165 0.20802
-6.35541 0.181119 0.434347
-6.88822 -0.343655 0.0457285
-6.86039 0.09163 0.272055
-6.48801 0.012201 0.0669365
-4.88162 0.371746 0.655425
-4.51246 -0.112716 0.623981
-4.65723 0.09269 0.995695
-4.69704 0.129515 0.639703
-4.95507 0.122989 0.627193
-4.76942 0.232218 0.82556
-4.77049 -0.119243 0.611471
-4.58484 -0.010013 0.809838
-4.84287 -0.0165395 0.797328
-3.75099 1.20677 0.090288
-3.64118 0.745776 0.266863
-4.09568 0.790235 0.315934
-3.78936 1.07086 0.69071
-3.69609 0.976272 0.178575
-3.92333 0.998502 0.203111
-3.77017 1.13882 0.390499
-3.86843 0.768006 0.291399
-3.71527 0.908319 0.478787
-3.94252 0.930549 0.503322
-2.18572 0.40145 0.915881
-1.75478 0.245881 0.526965
-1.94554 -0.013967 0.999902
-1.76886 0.356252 0.93439
-1.97025 0.323665 0.721423
-2.06563 0.193741 0.957891
-1.97729 0.378851 0.925135
-1.85016 0.115957 0.763433
-1.76182 0.301067 0.730678
-1.8572 0.171143 0.967146
-5.06116 0.824959 0.710182
-4.88551 0.773989 0.80113
-4.92155 0.772883 0.437198
-5.01596 0.602336 0.857802
-4.97333 0.799474 0.755656
-4.99135 0.798921 0.57369
-5.03856 0.713647 0.783992
-4.90353 0.773436 0.619164
-4.95074 0.688163 0.829466
-4.96876 0.687609 0.6475
-2.34262 2.51752 0.051733
-2.4672 2.85727 -0.311185
-2.29554 2.81673 0.086134
-2.65762 2.74748 0.16058
-2.40491 2.6874 -0.129726
-2.31908 2.66712 0.0689335
-2.50012 2.6325 0.106157
-2.38137 2.837 -0.112526
-2.56241 2.80238 -0.0753025
-2.47658 2.7821 0.123357
-3.50303 -3.76846 -0.636668
-3.49422 -3.29308 -1.15018
-3.31427 -3.71149 -1.25136
-2.90724 -3.34218 -0.858121
-3.49863 -3.53077 -0.893424
-3.40865 -3.73997 -0.944014
-3.20514 -3.55532 -0.747394
-3.40425 -3.50228 -1.20077
-3.20073 -3.31763 -1.00415
-3.11076 -3.52683 -1.05474
-4.0054 2.49156 -0.125899
-3.5956 2.50054 -0.194198
-3.83412 2.54803 0.0159
-3.8005 2.49605 -0.160049
-3.90253 2.36404 -0.0425255
-3.91976 2.5198 -0.0549995
-3.69763 2.36853 -0.076675
-3.71486 2.52428 -0.089149
-3.81689 2.39228 0.028374
-3.73452 -3.68531 -1.05781
-3.52439 -3.6984 -1.15459
-3.61437 -3.4892 -1.104
-3.61877 -3.72688 -0.84724
-6.37864 0.944563 0.328331
-6.25891 0.813305 0.581838
-6.65332 0.772267 0.635298
-6.31878 0.878934 0.455085
-6.41941 0.696025 0.310797
-6.51598 0.858415 0.481815
-6.35955 0.630395 0.43755
-6.45612 0.792786 0.608568
-6.55675 0.609877 0.46428
1.62066 -0.841518 -0.540229
1.89324 0.238579 -0.195511
2.01627 -0.690819 -0.723027
2.25185 -0.211859 0.261412
1.75695 -0.30147 -0.36787
1.81846 -0.766169 -0.631628
1.93625 -0.526689 -0.139408
1.95475 -0.22612 -0.459269
2.07254 0.01336 0.0329505
2.13406 -0.451339 -0.230807
-2.56949 2.06853 0.305158
-2.91403 1.60744 0.564909
-3.02709 2.08175 0.021586
-2.87501 2.07662 0.630995
-2.74176 1.83799 0.435033
-2.79829 2.07514 0.163372
-2.72225 2.07258 0.468077
-2.97056 1.8446 0.293247
-2.89452 1.84203 0.597952
-2.95105 2.07919 0.32629
-5.39985 0.358755 0.933432
-5.34934 0.453264 0.543553
-5.56264 0.558471 0.829524
-5.70805 0.297641 0.954678
-5.37459 0.40601 0.738492
-5.48124 0.458613 0.881478
-5.55395 0.328198 0.944055
-5.45599 0.505868 0.686538
-5.52869 0.375452 0.749116
-5.63535 0.428056 0.892101
-4.17913 0.323834 -0.696515
-4.36183 0.516245 -0.417662
-4.60784 0.019305 -0.528365
-4.46586 0.364911 -0.72315
-4.27048 0.42004 -0.557088
-4.39349 0.17157 -0.61244
-4.3225 0.344372 -0.709832
-4.48483 0.267775 -0.473013
-4.41384 0.440578 -0.570406
-4.53685 0.192108 -0.625757
-5.9377 0.438799 -0.558905
-5.87927 0.529091 -0.848565
-6.25926 0.555743 -0.831354
-6.07929 0.245277 -0.969453
-5.90849 0.483945 -0.703735
-6.09848 0.497271 -0.695129
-6.00849 0.342038 -0.764179
-6.06927 0.542417 -0.839959
-5.97928 0.387184 -0.909009
-6.16928 0.40051 -0.900404
-3.64743 2.72944 0.180305
-3.74077 2.63873 0.0981025
-3.72354 2.48298 0.110576
-3.62151 2.61499 -0.0069465
-3.98168 0.388062 0.141859
-3.76543 0.320245 0.603448
-3.81143 0.566919 0.204361
-3.70331 0.533011 0.435156
-4.03868 0.589149 0.228897
-3.87356 0.354154 0.372653
-3.93055 0.55524 0.459691
-6.17342 0.027823 -0.593282
-6.59748 0.255766 -0.966739
-6.35964 0.547779 -0.240473
-6.21634 0.291783 -0.712318
-6.42837 0.405755 -0.899047
-6.30945 0.551761 -0.535914
-6.38545 0.141794 -0.78001
-6.26653 0.287801 -0.416878
-6.47856 0.401772 -0.603606
-5.98474 0.742767 -0.66955
-5.96122 0.590783 -0.614227
-6.122 0.649255 -0.750452
-5.93201 0.635929 -0.759057
-5.86659 0.345457 -0.129882
-5.96054 -0.099592 -0.035866
-6.02 0.18664 -0.361582
-6.11312 0.446618 -0.185177
-5.91357 0.122933 -0.082874
-6.06698 -0.0358845 -0.314574
-6.16009 0.224094 -0.13817
-1.10421 0.363269 -0.931684
-0.773878 0.737644 -0.67519
-0.520452 0.269543 -0.962988
-0.384634 0.008888 -0.353445
-0.939043 0.550457 -0.803437
-0.812329 0.316406 -0.947336
-0.74442 0.186079 -0.642564
-0.647165 0.503594 -0.819089
-0.579256 0.373266 -0.514317
-0.452543 0.139215 -0.658216
-2.85287 -3.00249 -1.21636
-3.23054 -2.92385 -1.196
-3.06719 -3.3306 -1.25351
-2.88006 -3.17233 -1.03724
-3.06889 -3.13301 -1.02706
-2.98722 -3.33639 -1.05581
-3.0417 -2.96317 -1.20618
-2.96003 -3.16654 -1.23493
-3.14886 -3.12722 -1.22475
-3.38618 -2.05134 -0.098565
-2.37808 -2.56123 -0.134541
-2.49252 -2.47812 0.422472
-2.41131 -1.89586 0.044632
-2.88213 -2.30628 -0.116553
-2.93935 -2.26473 0.161954
-2.89875 -1.9736 -0.0269665
-2.4353 -2.51967 0.143966
-2.39469 -2.22855 -0.0449545
-2.45192 -2.18699 0.233552
-1.85713 -0.413967 0.42138
-1.65927 -0.390905 0.920431
-1.2503 -0.077569 0.384148
-1.80595 -0.084043 0.474172
-1.70702 -0.072512 0.723698
-1.50254 0.084156 0.455557
-1.7582 -0.402436 0.670905
-1.55371 -0.245768 0.402764
-1.45478 -0.234237 0.652289
-2.09043 2.55218 0.167395
-2.0659 2.66009 -0.048555
-2.19298 2.68445 0.126765
-2.18072 2.73841 0.0187895
-2.07816 2.60614 0.05942
-2.21652 2.53485 0.109564
-2.20426 2.58881 0.001589
-4.01665 2.44382 0.136481
-3.97233 2.67361 0.084512
-3.92539 2.49592 0.0761905
-3.99449 2.55872 0.110496
-4.01103 2.46769 0.005291
-3.90323 2.61082 0.050206
-3.98887 2.58259 -0.0206935
-3.92754 1.80484 -0.220103
-4.28096 1.83407 -0.225431
-4.13592 1.88983 -0.461486
-4.146 2.03152 -0.278406
-4.10425 1.81945 -0.222767
-4.03173 1.84734 -0.340795
-4.03677 1.91818 -0.249254
-4.20844 1.86195 -0.343458
-4.21348 1.9328 -0.251918
-4.14096 1.96068 -0.369946
-4.04038 -5 0.949212
-3.62468 -5 1.26221
-3.84559 -4.54287 1.07336
-3.71487 -5 0.728948
-3.83253 -5 1.10571
-3.94299 -4.77144 1.01129
-3.87763 -5 0.83908
-3.73513 -4.77144 1.16779
-3.66977 -5 0.99558
-3.78023 -4.77144 0.901156
-1.37334 0.812082 -0.583544
-0.975724 0.961208 -0.275823
-1.19336 -0.166381 -0.273753
-1.17453 0.886645 -0.429683
-1.07361 0.774863 -0.629367
-1.28335 0.32285 -0.428648
-0.874801 0.849426 -0.475506
-1.08454 0.397413 -0.274788
-0.983618 0.285631 -0.474471
-3.83515 -1.82017 -0.741539
-3.34976 -1.58414 -0.592596
-3.50394 -2.07825 -1.02313
-3.59245 -1.70215 -0.667067
-3.66955 -1.94921 -0.882335
-3.61067 -1.93575 -0.420052
-3.42685 -1.83119 -0.807863
-3.36797 -1.81774 -0.345581
-3.44506 -2.06479 -0.560848
-2.72946 0.769161 0.094533
-2.75119 0.681139 -0.326037
-2.98528 1.02631 -0.281501
-3.08113 0.734324 -0.34324
-2.74032 0.72515 -0.115752
-2.85737 0.897737 -0.093484
-2.90529 0.751742 -0.124353
-2.86823 0.853726 -0.303769
-2.91616 0.707731 -0.334639
-3.03321 0.880319 -0.31237
-2.94023 -2.47675 -0.674772
-3.14499 -2.03044 -0.633684
-3.22209 -2.2775 -0.848951
-3.16321 -2.26404 -0.386669
-3.03914 -4.25341 0.579285
-2.64287 -3.80807 0.20828
-2.47531 -4.18593 0.714333
-2.97264 -3.41482 0.618231
-2.84101 -4.03074 0.393783
-2.75723 -4.21967 0.646809
-3.00589 -3.83412 0.598758
-2.55909 -3.997 0.461307
-2.80776 -3.61144 0.413255
-2.72397 -3.80037 0.666282
-2.39684 -0.595487 -0.803365
-1.98884 -0.54749 -0.836812
-2.24172 -0.466498 -0.098067
-2.21295 -0.01831 -0.514797
-2.19284 -0.571489 -0.820088
-2.31928 -0.530992 -0.450716
-2.3049 -0.306899 -0.659081
-2.11528 -0.506994 -0.46744
-2.1009 -0.2829 -0.675804
-2.22734 -0.242404 -0.306432
-3.36239 -4.55484 -1.31864
-3.11171 -4.25429 -0.873787
-2.86199 -4.55394 -1.36046
-2.79118 -5 -0.96439
-3.23705 -4.40456 -1.09621
-3.11219 -4.55439 -1.33955
-3.07678 -4.77742 -1.14151
-2.98685 -4.40411 -1.11712
-2.95144 -4.62714 -0.919088
-2.82658 -4.77697 -1.16243
-3.88203 2.65205 -0.416886
-3.48121 2.84727 -0.340672
-3.82273 3 -0.474998
-3.72541 2.76868 -0.627028
-3.68162 2.74966 -0.378779
-3.85238 2.82603 -0.445942
-3.80372 2.71037 -0.521957
-3.65197 2.92364 -0.407835
-3.60331 2.80798 -0.48385
-3.77407 2.88434 -0.551013
[...]
POINT_DATA 7451
 
FIELD FieldData 2
velocity 3 7451 double
-0.120737 -0.346914 0.00841065
1.50635e-030 3.39169e-030 -1.67907e-031
4.42388e-031 1.20929e-030 -4.91982e-032
1.25635e-030 3.35805e-030 -1.53036e-031
-0.0820621 -0.200116 0.00992419
-0.0720796 -0.198817 0.00804673
-0.0788736 -0.227154 0.0107099
-1.85415e-018 -4.4583e-018 2.72184e-019
5.54449e-018 1.36701e-017 -9.51477e-019
1.88019e-029 -8.05578e-030 -4.38811e-030
8.72361e-030 2.9335e-030 -1.83122e-031
-0.402531 -0.108283 0.000625564
-0.613458 -0.140786 0.00650051
-0.690141 -0.226396 0.00525239
-0.222863 -0.0762771 0.00651447
-0.300631 -0.0921931 0.00915352
-0.397386 -0.145265 0.00848594
-0.52388 -0.132805 0.00628816
-0.579662 -0.172352 0.00462768
-0.66123 -0.189677 0.00735977
9.34587e-029 -2.76159e-031 2.67903e-032
-0.828724 0.00709767 -0.000585795
-1.0772 -1.53483e-005 -0.000500261
5.40263e-029 -2.13569e-031 4.9954e-032
-0.540802 0.00323105 1.47222e-005
-0.817743 -0.000109644 -0.00247845
-1.3182e-016 2.29088e-019 -3.13516e-019
-0.983971 0.00119968 -4.38392e-005
-0.470129 0.00617586 -0.000818162
-0.726729 0.00185006 -0.000164011
3.18539e-029 3.24815e-030 5.70182e-032
2.09898e-029 1.32136e-030 2.71626e-031
-0.685649 -0.0996473 -0.0131222
-0.864717 -0.0591425 -0.0048557
-1.03994e-016 -6.63218e-018 -1.04712e-018
-0.41499 -0.0468958 -0.0038486
-0.516127 -0.0325893 -0.00341664
-0.396183 -0.0303767 -0.00742829
-0.495779 -0.0225431 -0.00492816
-0.780693 -0.0816375 -0.00808977
-4.22218e-030 -6.45764e-029 1.09185e-030
0.0271482 0.46335 0.0074593
-4.61612e-030 -7.61564e-029 1.50388e-030
-8.3486e-031 -1.01309e-029 -8.40483e-032
0.0242418 0.301959 -0.000487093
-6.46128e-017 -7.16335e-016 1.04078e-017
-4.12753e-018 -4.19588e-017 1.70723e-019
0.0274669 0.352497 -0.00192594
0.0229876 0.271842 0.00282469
-5.93068e-017 -6.31438e-016 4.55232e-018
-0.812509 -0.0156926 -0.00239888
-0.979181 -0.00964153 -0.00188492
-0.883305 -0.012505 -0.0011419
-0.987145 -0.00265947 -0.000985503
-1.10444 -0.0167477 -0.00298312
-0.962486 -0.0165436 -0.0023755
-1.08864 -0.00459804 -0.00355177
-1.14138 -0.00255631 -0.000570528
-1.23762 -0.0166037 -0.00157507
-0.551948 -0.179491 0.00430069
-0.559561 -0.0973283 -0.0188986
1.81392e-029 4.87791e-030 1.82574e-031
-0.610424 -0.158114 -0.00761492
-0.674491 -0.147844 -0.003689
-0.303814 -0.105462 0.00312533
-0.622314 -0.106555 -0.0179585
-0.336207 -0.0897393 -0.00976949
-0.383017 -0.0811919 -0.00791723
-0.417232 -0.444238 -0.0162466
-0.450695 -0.257074 -0.0359242
-0.587482 -0.323965 -0.00947117
-0.231204 -0.285461 0.00145741
-0.449929 -0.374101 -0.0285061
-0.503669 -0.385493 -0.0136776
-0.380428 -0.400407 -0.00969486
-0.536025 -0.298694 -0.022608
-0.373315 -0.314764 -0.0159402
-0.409362 -0.321222 -0.003068
-1.63923e-029 -5.51463e-030 7.73761e-031
0.338304 0.0446748 -0.00333971
-1.98372e-029 -5.34862e-030 -4.14272e-031
-4.19263e-030 -1.68573e-031 -3.47558e-033
0.182149 0.0246065 -0.00355958
5.84916e-017 2.78404e-018 2.46637e-018
3.12394e-018 1.65663e-019 -5.37991e-022
0.207355 0.0137822 -0.000318595
0.193397 0.00867596 0.00185418
-6.74139e-017 -3.51628e-020 -9.33038e-019
2.45764e-017 1.1361e-017 -6.49719e-019
2.67337e-030 1.2098e-030 -4.87615e-032
-0.498006 -0.204466 0.00791063
2.85655e-030 1.15907e-030 -5.1544e-032
1.22892e-017 6.11878e-018 -3.65482e-019
-0.281312 -0.123606 0.0061232
9.66463e-017 4.31363e-017 -3.33219e-018
-0.281337 -0.134792 0.00715998
1.49705e-016 7.63071e-017 -3.26127e-018
-0.310205 -0.131502 0.00533555
-0.0327646 -0.236597 -0.0109902
-0.0200924 -0.258038 -0.00751013
-0.0123811 -0.234906 -0.00538201
-0.051012 -0.491177 -0.0114335
-0.0285221 -0.271429 -0.00921978
-0.0227804 -0.23684 -0.00834159
-0.044662 -0.37577 -0.0127094
-0.018391 -0.273635 -0.0077924
-0.0375198 -0.400777 -0.00982825
-0.0314104 -0.379237 -0.00889397
0.0118888 0.300236 0.0107746
-6.65713e-031 -2.19304e-029 -1.15104e-030
-3.35432e-031 -1.66045e-029 -9.56333e-031
-0.00173742 0.240732 0.0141816
0.00665604 0.15291 0.00855279
0.00577912 0.149627 0.00853977
0.00490619 0.301037 0.0138044
2.18567e-029 2.39734e-030 6.34831e-029
0.00222261 0.139771 0.00954235
0.00107443 0.11977 0.00850362
9.50145e-031 3.53909e-030 -8.83913e-032
-0.0903569 -0.379363 0.00376921
-0.0482777 -0.230306 0.0042536
-0.0581872 -0.236915 0.00572278
-0.0601481 -0.195217 0.00534833
-0.0276624 -0.118217 0.00295244
-0.109468 -0.375781 0.00523053
-0.075824 -0.333703 0.0051188
-0.0816409 -0.287439 0.00660214
-2.71127e-031 -4.89908e-030 -2.44817e-031
-3.76899e-018 -7.00004e-017 -4.97636e-018
3.67585e-018 6.27919e-017 4.37105e-018
0.00801292 0.146244 0.00720915
9.95222e-030 1.68883e-031 5.83185e-033
1.31838e-029 2.16867e-031 1.85657e-032
1.71952e-029 1.83175e-031 4.6179e-032
6.84275e-017 1.50403e-018 1.03479e-019
-0.510729 -0.0124909 -0.000675095
-4.75677e-030 -4.44725e-029 -2.24674e-029
-0.501426 -0.0063012 -0.000758597
7.95757e-017 -1.80212e-019 1.81648e-019
-0.510045 -0.00569689 -0.00111308
-1.44122e-028 3.71292e-031 -6.51822e-032
0.471452 0.000469715 0.000674053
-5.33412e-029 4.49865e-032 -1.23889e-031
0.459332 -0.00208797 0.00125272
0.405268 -0.00131231 0.000281789
-6.51783e-017 5.43557e-020 -2.90095e-019
0.366162 -0.00028846 0.00128636
0.383779 0.000602096 0.000851468
0.519829 -0.00106169 0.00155965
0.387082 -0.00119217 0.00167034
-0.0784334 -0.317508 -0.0224984
-0.114423 -0.317503 -0.0274654
-0.166676 -0.536555 -0.0202537
-0.0871585 -0.375298 -0.0167359
-0.103855 -0.343208 -0.0270865
-0.131234 -0.473874 -0.0261786
-0.0907728 -0.375738 -0.0229416
-0.172737 -0.498764 -0.0288808
-0.104118 -0.353247 -0.0224492
-0.146897 -0.527911 -0.0237015
3.01307e-030 3.95676e-031 -6.64758e-032
-0.655079 -0.119578 0.00947063
6.51435e-030 5.17414e-031 -1.14347e-031
2.8858e-029 1.90326e-030 -1.47672e-031
-0.370112 -0.0486168 0.0101251
-9.64154e-017 -7.65438e-018 3.40427e-018
1.34104e-016 6.19351e-018 -3.96473e-018
-0.357982 -0.0429723 0.00875316
-0.373509 -0.0303889 0.00691153
-2.18727e-017 -7.22628e-019 7.78989e-019
-0.394832 -0.101902 -0.0141636
-0.669688 -0.227646 -0.0107346
-0.711714 -0.11131 -0.00617322
-0.400221 -0.117312 -0.00524014
-0.553585 -0.167374 -0.0134809
-0.569557 -0.117417 -0.0109521
-0.401978 -0.113827 -0.00948261
-0.725156 -0.170807 -0.0109213
-0.565188 -0.179206 -0.00656066
-0.580203 -0.126344 -0.00617662
-0.614378 -0.0137863 0.00152566
3.2411e-030 4.01817e-032 -4.89785e-033
2.88076e-029 3.6667e-031 -1.40164e-031
1.3276e-029 1.87584e-031 -2.41371e-032
-0.33193 -0.00349842 0.00108319
-0.32942 -0.00637952 0.00266916
-0.359344 -0.00440205 0.00187111
-2.35918e-016 -1.98826e-018 1.99142e-018
-1.13693e-016 -2.98173e-019 9.73209e-019
-1.06676e-029 -2.11076e-029 4.73724e-029
-0.0576415 -0.391308 0.0047522
-0.0551022 -0.319044 0.00485151
-0.0852147 -0.366407 0.00586815
-0.0785762 -0.415754 0.00387551
-0.719726 -0.145156 -0.0340123
-0.395972 -0.0461673 -0.0134985
-0.585111 -0.196977 -0.0370786
-0.448301 -0.143757 -0.0278337
-0.673742 -0.253065 -0.023225
-0.59605 -0.0956869 -0.026511
-0.52985 -0.203419 -0.0148484
-0.793673 -0.0106731 0.000505495
-3.60313e-017 3.93451e-020 7.88557e-020
-0.794517 -0.00930205 0.00306528
-0.497553 -0.00752758 0.00285962
-2.40965e-029 -3.01544e-029 5.94579e-029
-0.497909 -0.00592126 0.00433111
-0.452136 -0.00801666 0.00166972
-0.921141 -0.0129552 0.00278303
-0.579255 -0.00303835 0.00288187
5.23707e-030 9.50724e-032 -3.55612e-033
-0.336482 -0.00656193 0.00176105
-7.60995e-017 -2.68598e-018 1.62864e-018
-1.00528e-016 -8.81423e-019 5.79253e-019
-1.08714 -0.0504417 0.00213698
-1.21544 -0.0408299 -0.00297597
-1.03527 -0.0267694 0.000397866
-0.956851 -0.0223862 0.00286532
-1.2143 -0.0496606 -6.49139e-005
-1.11099 -0.0264183 -0.00139069
-1.15784 -0.0272328 0.00114004
1.94369e-017 -1.72611e-019 -3.10518e-019
-4.71266e-029 4.09696e-031 4.60929e-031
-1.75017e-029 4.81552e-032 9.38059e-032
0.463059 -0.00410704 -0.00090992
-2.98868e-017 3.00446e-019 4.36376e-019
1.30176e-029 -3.19519e-029 9.6597e-029
0.284345 -0.00278918 -0.00290653
-3.08385e-017 9.84465e-020 3.19823e-019
0.318038 -0.00341326 -0.00235213
0.287428 0.000166013 -0.00198089
8.10686e-032 -7.37291e-030 -5.80106e-031
-3.22124e-031 -2.32e-029 -1.43795e-030
-5.864e-033 -2.6953e-030 -2.01793e-031
-0.00133337 0.121585 0.00926914
0.00207644 0.128781 0.0102463
4.15673e-005 0.117502 0.00831863
-7.34763e-019 -5.77317e-017 -5.51765e-018
-9.3946e-020 2.63614e-017 2.3308e-018
-1.32637e-018 -5.59182e-017 -5.09554e-018
0.0217925 0.747367 0.000872151
-0.0259407 0.543964 0.00427716
-0.0269762 0.671304 -0.0265609
-0.0280838 0.67689 -0.0104797
-0.00749569 0.79193 0.00467491
-0.00393414 0.896543 -0.0142882
-0.00684744 0.884687 -0.00529357
-0.0279356 0.665505 -0.00800023
-0.0271527 0.61132 -0.000707605
-0.0289582 0.701757 -0.0196807
0.35913 0.150046 0.0210599
-2.56609e-029 -1.42964e-030 -1.34519e-031
0.444286 0.0127176 -0.00253436
0.397732 0.095139 0.00113204
0.240956 0.00543696 -0.000598205
0.411158 0.0286586 -0.000727565
0.193251 0.00412791 0.00750903
0.403241 0.0469505 -0.00240384
0.26341 0.000146995 -0.00325768
-1.96379e-018 -2.6672e-017 -9.00967e-019
1.08022e-031 1.24086e-030 4.98987e-032
-0.00751734 -0.118786 -0.0033743
-0.00807008 -0.115315 -0.00315348
-4.17304e-018 -5.18026e-017 -1.70387e-018
-0.0163855 -0.12842 -0.00596917
-0.015166 -0.122291 -0.00667081
-7.37237e-018 -2.96734e-017 9.66472e-019
2.78144e-031 1.76413e-030 -3.21088e-032
-0.0309982 -0.13251 0.00363803
1.24342e-017 6.57952e-017 -1.30458e-018
2.02022e-029 -6.64631e-030 -1.24596e-031
-0.02114 -0.130801 0.00142642
2.19057e-017 1.18896e-016 -2.00023e-018
-0.181723 -0.296298 0.00713732
1.44102e-030 2.0265e-030 -1.00938e-031
6.83047e-031 1.10524e-030 -5.03384e-032
5.12754e-031 8.98476e-031 -4.21158e-032
-0.111901 -0.169813 0.00857131
-0.102585 -0.165308 0.00763441
-0.0996267 -0.170275 0.00779226
-5.12467e-017 -7.75066e-017 5.23849e-018
-2.85413e-016 -4.53993e-016 3.40925e-017
-1.97798e-016 -3.3295e-016 2.10641e-017
-1.18245e-031 -3.32806e-030 1.22534e-031
-1.73083e-031 -9.18189e-030 3.96371e-031
-5.63871e-031 -1.63335e-029 8.03759e-031
0.00925287 0.351592 -0.00973912
-3.14806e-018 -1.27342e-016 5.65118e-018
-5.24522e-019 -1.48115e-017 7.17463e-019
0.00596098 0.202956 -0.00656361
7.85406e-019 2.72439e-017 -5.27583e-018
0.00526311 0.239721 -0.0101496
0.00811916 0.239794 -0.0112371
-5.44256e-029 -1.97863e-031 1.16088e-030
-5.71314e-029 2.89478e-031 5.94094e-031
0.466206 -0.00944023 -0.000198641
2.46899e-017 5.31578e-020 -6.043e-019
-2.68816e-017 1.48286e-019 5.97905e-019
0.374312 -0.00241748 -0.00795086
-6.1142e-017 4.94456e-019 6.05861e-019
0.40958 -0.00111677 -0.0056294
0.361223 -0.00507418 -0.00332365
6.20025e-020 9.38981e-019 4.80783e-020
0.00735191 0.418389 0.0186704
-2.20064e-030 -6.32576e-029 -2.49911e-030
0.0084966 0.227483 0.0116968
-4.48513e-018 -7.07821e-017 -1.01178e-017
0.0202448 0.410927 0.0116918
0.0078487 0.193123 0.0131053
0.0149653 0.616229 0.0133764
0.016153 0.402346 0.0165623
0.0213832 -0.0561563 -0.0382805
0.0196633 -0.00705664 -0.0285675
-0.125496 -0.208798 -0.0304273
-0.131095 -0.097155 -0.0409921
0.018882 -0.0404613 -0.0371833
-0.0593966 -0.157348 -0.0377278
-0.0597052 -0.0983372 -0.0450754
-0.043503 -0.0916207 -0.0276418
-0.0490654 -0.0500084 -0.0351846
-0.122416 -0.156791 -0.0362011
-0.00184431 0.387214 0.0196042
0.00702152 0.43333 0.0198445
0.00722409 0.232707 0.0144013
0.00908978 0.618771 0.0161626
0.000697566 0.60412 -0.0203178
-0.015932 0.661152 -0.00843479
-0.0161033 0.465828 -0.02307
-0.000811346 0.659358 -0.0313577
-0.00798447 0.677321 -0.0146758
-0.00920306 0.579397 -0.0234712
0.000352736 0.63244 -0.0264883
-0.0181188 0.599625 -0.0167277
-0.0100482 0.703932 -0.0178053
-0.0120498 0.58915 -0.0281214
1.76312e-017 5.39852e-017 3.68712e-018
5.5732e-017 1.37331e-018 1.00792e-019
0.392526 0.450057 -0.0184879
0.29466 0.111469 -0.0238264
1.34465e-029 3.71379e-029 4.17696e-029
0.261388 0.301752 -0.0140026
0.197572 0.113878 -0.0174696
0.294068 0.171441 -0.0168613
0.226936 0.0583355 -0.012246
0.37587 0.25975 -0.0261011
8.65834e-019 2.06331e-017 1.64725e-018
0.00217193 0.224602 0.00969677
1.97964e-031 -1.41893e-029 -5.67087e-031
-0.00179256 0.168286 0.00381022
0.00249267 0.102612 0.00613347
1.48082e-018 3.07948e-017 4.08041e-018
0.000656813 0.0923382 0.00369547
4.82708e-005 0.101809 0.00559702
-0.000683608 0.201137 0.00601995
-0.00109507 0.080391 0.0031433
6.28656e-031 3.44263e-030 -6.98079e-032
-0.0416454 -0.331003 0.00249972
5.93808e-031 1.10904e-029 -1.21939e-031
1.00198e-030 5.02724e-030 -9.05485e-032
-0.028166 -0.194419 0.00377388
-2.90396e-017 -2.47908e-016 5.71381e-018
2.24651e-029 -4.93473e-030 1.56672e-029
-0.0181371 -0.188605 0.00248949
-0.0261572 -0.180074 0.00190819
-2.32986e-017 -2.0168e-016 3.12462e-018
0.500569 -0.00029805 -0.000136752
-1.99384e-029 2.38904e-032 -5.80527e-033
-2.07266e-029 1.49676e-032 4.09076e-033
-3.52867e-029 4.94994e-032 5.6189e-033
0.339022 0.000152535 -5.52093e-005
0.340539 -0.000148934 -0.000224572
0.33851 -0.000272339 5.30124e-005
1.39876e-029 -6.77794e-020 -1.05825e-029
1.26789e-029 -5.15058e-021 -1.16649e-020
2.48673e-017 6.75378e-029 -1.39482e-030
0.193283 0.714296 -0.0383959
-0.0128971 0.826185 -0.0197215
-0.0181145 0.856896 -0.0719867
0.0349002 0.737499 0.000331703
0.0879491 0.891577 -0.0409358
0.0646927 0.82583 -0.062158
0.132786 0.832842 -0.0317115
-0.0193048 0.961285 -0.051562
0.0503604 0.842624 -0.0116588
0.0410171 0.961648 -0.0444689
-7.45574e-029 1.01058e-031 3.35312e-032
-4.39763e-029 9.14363e-032 1.06599e-031
-5.45383e-029 4.19387e-031 -2.56374e-032
0.459399 -0.0038029 -7.93682e-005
1.92857e-017 -1.93726e-022 -1.04982e-019
1.92001e-017 -3.2016e-022 -6.45411e-022
0.363835 4.92873e-005 -0.00136795
8.87674e-019 -1.26074e-022 -1.28007e-021
0.325365 0.000412807 -0.00117304
0.36976 -0.00238036 0.00046219
8.10393e-030 4.69925e-030 -2.28486e-031
-0.38469 -0.231787 0.0114393
2.76225e-030 1.62972e-030 -9.83082e-032
-0.262848 -0.167761 0.00935474
-0.255493 -0.1361 0.00737384
5.62968e-016 3.78219e-016 -2.68551e-017
-0.441601 -0.221424 0.00949195
-0.232534 -0.151721 0.0108206
-0.245408 -0.13425 0.00748862
-0.821034 0.000729445 0.00582473
1.76789e-028 -2.06597e-031 -2.54281e-031
1.31741e-029 -8.21833e-032 -1.63775e-031
-0.81985 0.00490571 0.00283573
-0.544328 0.00249525 0.00267178
-0.490796 -0.000510522 0.00619428
-0.907093 0.00382576 0.00343688
-2.27778e-029 3.29851e-029 6.13891e-029
-0.463022 0.00413247 0.00180507
-0.495032 0.00619393 0.00342261
-3.56486e-029 3.69417e-031 2.59427e-031
-1.30918e-029 2.21182e-031 1.68628e-031
-2.02655e-029 -7.76566e-031 1.12174e-031
-4.4842e-017 1.96112e-018 4.14816e-019
-1.1625e-018 1.95347e-020 4.04945e-020
0.291351 -0.00278411 -0.00204383
-1.59718e-017 4.27375e-019 6.09131e-019
0.269331 -0.00566275 -0.00235505
0.279182 0.00328856 -0.0113592
-7.78686e-029 1.20237e-030 -2.1793e-031
0.371746 -0.00594338 0.00022044
0.311212 -0.00881755 0.00172227
0.337015 -0.00654226 0.000696794
0.515276 -0.00726054 -0.000313767
0.532092 -0.00499594 -0.000223522
0.468965 -0.0092849 -0.000677522
-1.70763e-029 -1.00239e-031 1.02791e-032
-3.20597e-029 4.56592e-031 -1.79327e-032
5.27997e-017 -2.58376e-018 -2.96361e-019
4.6064e-017 -1.99467e-018 -4.22583e-019
0.272796 -0.00363689 -0.00070818
4.13457e-018 -2.06506e-019 -4.90694e-020
0.280317 -0.00433601 -0.00279899
-5.96875e-029 2.17363e-031 2.39335e-031
0.458954 0.00163649 -0.000652568
-3.97328e-029 1.25523e-031 1.03973e-031
0.282517 -0.00141328 -0.000773572
-9.54045e-017 1.13373e-019 6.8412e-019
0.361271 -0.00274902 -0.00183414
0.293927 -6.06705e-006 -0.000771389
0.481065 -0.00132207 -0.000762338
0.310393 0.000739184 -0.00217101
-1.59952e-029 1.19781e-031 -1.30256e-031
-4.70646e-029 1.08552e-032 -3.10073e-031
-5.48111e-029 3.04546e-031 -2.64842e-031
3.271e-017 -5.18066e-019 8.21509e-019
-3.51993e-017 6.00076e-019 -7.84447e-019
0.285607 -0.0037518 0.00565739
-2.29849e-017 3.24675e-019 -3.81006e-019
0.296932 -0.00288105 0.00383138
0.296759 -0.003305 0.0028292
1.39736e-030 -8.16282e-030 4.04778e-031
-0.177377 0.11774 -0.0202918
1.89822e-030 -3.75217e-030 5.25223e-031
0.0727075 0.224666 -0.0256843
-0.0594507 0.0854628 -0.00542557
-1.36028e-017 -6.02033e-018 5.35628e-019
0.00792838 0.138534 -0.00654242
-0.0671978 0.0432695 -0.00492141
-0.0680921 0.184627 -0.0211857
-0.00433915 0.0778115 -0.00741602
-6.4849e-030 -3.36258e-030 -7.09152e-031
-5.19751e-029 -7.17369e-030 -7.28e-031
-8.78195e-030 -1.85469e-029 2.72729e-031
0.203052 0.0406144 0.0317134
0.240145 0.0827003 0.0177483
0.252007 0.187463 0.045811
2.75857e-030 5.1684e-029 -3.20672e-029
5.51513e-017 5.00292e-017 1.12709e-017
-6.89196e-017 -4.30249e-017 -1.1692e-017
-2.08981e-029 -6.06286e-032 -2.88936e-033
-1.3228e-017 -2.00974e-029 -6.81966e-029
5.11408e-017 -1.74968e-018 1.47499e-020
0.301908 -0.00162461 0.00161898
-0.0936624 -0.268888 0.00269789
1.59284e-030 3.26066e-030 -4.88538e-032
-0.151177 -0.265682 -0.00458373
3.54251e-030 8.04136e-030 4.82443e-032
-0.0601227 -0.138858 0.0035653
-0.126485 -0.276012 -0.000882833
-0.0605079 -0.146793 0.00221302
-0.0836551 -0.15311 0.00150182
9.94685e-018 1.96683e-017 -4.38662e-019
-0.0730983 -0.140221 -0.000214269
-0.281165 -0.32473 -0.0281119
-0.261268 -0.486045 -0.0266814
-0.117142 -0.185156 -0.0148533
-0.21605 -0.281066 -0.0339162
-0.279735 -0.416512 -0.0282279
-0.19405 -0.274078 -0.0233318
-0.219185 -0.368926 -0.0345831
-0.131216 -0.207261 -0.0202225
-0.208304 -0.366329 -0.0264141
0.457297 0.00150998 0.000100288
-9.38347e-029 -2.47534e-031 3.31108e-031
-3.85437e-029 -1.77717e-031 4.94229e-032
0.46983 0.00202279 -0.000713883
0.299657 0.00232051 -0.000821436
0.28344 0.00233566 0.000635815
0.476752 0.0024917 -0.000987887
4.10644e-029 -8.32409e-030 -1.04495e-028
0.391543 -0.00143204 -0.0015185
0.344811 -0.000376092 -0.000311707
-1.68991e-029 2.35178e-032 1.623e-032
-4.47078e-029 1.51344e-032 -9.26172e-033
-8.33828e-029 3.39008e-032 4.35346e-032
1.28615e-029 4.71764e-029 8.31387e-029
0.287846 -0.000420036 -0.000240369
6.27299e-017 2.89398e-019 -2.92712e-020
0.315246 0.000643599 0.000471711
-2.96153e-017 -9.31311e-020 2.25865e-020
0.287728 -4.62637e-005 -0.00037513
-2.52658e-029 4.35627e-032 -2.69461e-032
-4.89658e-029 4.84133e-032 -1.03146e-031
0.496695 -0.000550781 0.000216503
-8.45433e-029 1.16402e-031 -2.01354e-031
8.19561e-017 -1.86912e-019 3.92575e-019
0.377222 -0.000806886 0.000705171
-6.46658e-017 3.4994e-019 -1.5983e-019
0.387507 -0.000646179 0.00187658
3.06724e-017 5.70178e-020 2.01496e-019
0.367694 -0.00215569 0.000630411
0.456283 0.00117502 -0.000621934
-9.36161e-029 2.66749e-032 9.79596e-032
0.523625 0.000165022 -5.20703e-005
0.335881 0.000281695 -0.00040405
0.459431 0.00198418 0.000419457
0.366871 -0.00144333 0.00107561
0.529743 0.00194539 -0.000891453
0.373424 0.000815464 -0.000332485
1.25345e-029 1.25448e-031 -9.18256e-032
-0.340869 -0.00536811 0.00448514
8.26339e-017 9.20716e-019 -3.16383e-018
-0.453646 -0.00490579 0.00457239
-0.737984 -0.0109026 0.00408216
1.15061e-030 -4.77323e-029 2.77745e-030
1.42423e-031 -8.75597e-029 4.95982e-030
-0.00896283 0.543139 -0.0310892
-3.17927e-005 0.543233 -0.0317088
-0.0111393 0.376226 -0.0232238
1.24116e-018 -7.03688e-017 4.60665e-018
-0.00723477 0.441931 -0.0266237
0.000670107 0.592561 0.00344491
0.012789 0.318879 0.00508436
0.00446544 0.579724 -0.00272863
0.000221674 0.419075 0.00353258
0.00980155 0.491854 0.00544471
0.00367425 0.589917 -3.25733e-005
0.000457693 0.513631 0.00432247
0.0088479 0.479851 0.00175121
0.00568258 0.399772 0.00449359
0.00221405 0.529565 0.00154043
0.00782874 0.300773 0.00867583
0.00193965 0.43444 0.00945501
0.0010263 0.326197 0.00606392
8.20384e-029 1.51567e-030 5.909e-031
1.37716e-028 2.81132e-030 8.63521e-031
2.46629e-029 2.9205e-031 1.06837e-031
-0.617233 -0.00797013 -0.00321535
-0.582064 -0.00901503 -0.0054132
-0.581994 -0.00992802 -0.00322461
-1.33229e-016 2.78589e-019 -1.67769e-018
-1.57571e-016 -2.90376e-018 -1.22069e-018
-1.49762e-016 -3.13578e-018 -1.70871e-018
6.88413e-031 2.51851e-030 -5.81786e-032
-0.156279 -0.447411 -0.00160729
3.85117e-030 1.83894e-029 6.03504e-032
1.44516e-030 6.82716e-030 -1.27824e-031
-0.0897471 -0.32666 0.00645829
4.46152e-030 -3.97082e-030 -2.67959e-029