# vtk DataFile Version 2.0 
output.vtk, Created by Freefem++, via gregorio
ASCII
DATASET UNSTRUCTURED_GRID
POINTS 7451 double
-3.79965 2.23652 0.040848
-4.13429 2.05574 0.276253
-4.09122 2.24524 0.070091
-4.01836 2.27766 0.330071
-3.96697 2.14613 0.158551
-3.94543 2.24088 0.0554695
-3.90901 2.25709 0.185459
-4.11275 2.15049 0.173172
-4.07633 2.1667 0.303162
-4.05479 2.26145 0.200081
-4.81817 0.732763 -0.840268
-4.76136 0.37264 -0.736193
-5.12328 0.495929 -0.550642
-4.73872 0.559667 -0.434419
-4.78977 0.552702 -0.788231
-4.97072 0.614346 -0.695455
-4.77845 0.646215 -0.637344
-4.94232 0.434285 -0.643417
-4.75004 0.466153 -0.585306
-4.931 0.527798 -0.49253
-7.58244 -0.891248 -0.453516
-8 -0.559587 0.124298
-7.26059 -0.264226 0.250847
-7.58828 -0.999993 0.00381
-7.79122 -0.725418 -0.164609
-7.42152 -0.577737 -0.101334
-7.58536 -0.94562 -0.224853
-7.6303 -0.411906 0.187573
-7.79414 -0.77979 0.064054
-7.42444 -0.632109 0.127328
-5.46564 0.048234 0.998836
-5.51396 -0.351144 0.936321
-5.02851 -0.125769 0.598961
-5.56665 -0.148801 0.504295
-5.4898 -0.151455 0.967578
-5.24708 -0.0387675 0.798898
-5.51614 -0.0502835 0.751565
-5.27124 -0.238457 0.767641
-5.5403 -0.249972 0.720308
-5.29758 -0.137285 0.551628
-4.20269 -2.80441 0.102764
-3.63085 -2.57461 -0.287529
-4.13183 -2.29387 0.255347
-4.14432 -2.47254 -0.273935
-3.91677 -2.68951 -0.0923825
-4.16726 -2.54914 0.179055
-4.1735 -2.63848 -0.0855855
-3.88134 -2.43424 -0.016091
-3.88759 -2.52358 -0.280732
-4.13807 -2.38321 -0.009294
-6.25062 -0.085247 0.575431
-6.51584 -0.423084 -0.15939
-6.46019 0.447486 0.293263
-6.75561 -0.174737 0.413139
-6.38323 -0.254165 0.20802
-6.35541 0.181119 0.434347
-6.88822 -0.343655 0.0457285
-6.86039 0.09163 0.272055
-6.48801 0.012201 0.0669365
-4.88162 0.371746 0.655425
-4.51246 -0.112716 0.623981
-4.65723 0.09269 0.995695
-4.69704 0.129515 0.639703
-4.95507 0.122989 0.627193
-4.76942 0.232218 0.82556
-4.77049 -0.119243 0.611471
-4.58484 -0.010013 0.809838
-4.84287 -0.0165395 0.797328
-3.75099 1.20677 0.090288
-3.64118 0.745776 0.266863
-4.09568 0.790235 0.315934
-3.78936 1.07086 0.69071
-3.69609 0.976272 0.178575
-3.92333 0.998502 0.203111
-3.77017 1.13882 0.390499
-3.86843 0.768006 0.291399
-3.71527 0.908319 0.478787
-3.94252 0.930549 0.503322
-2.18572 0.40145 0.915881
-1.75478 0.245881 0.526965
-1.94554 -0.013967 0.999902
-1.76886 0.356252 0.93439
-1.97025 0.323665 0.721423
-2.06563 0.193741 0.957891
-1.97729 0.378851 0.925135
-1.85016 0.115957 0.763433
-1.76182 0.301067 0.730678
-1.8572 0.171143 0.967146
-5.06116 0.824959 0.710182
-4.88551 0.773989 0.80113
-4.92155 0.772883 0.437198
-5.01596 0.602336 0.857802
-4.97333 0.799474 0.755656
-4.99135 0.798921 0.57369
-5.03856 0.713647 0.783992
-4.90353 0.773436 0.619164
-4.95074 0.688163 0.829466
-4.96876 0.687609 0.6475
-2.34262 2.51752 0.051733
-2.4672 2.85727 -0.311185
-2.29554 2.81673 0.086134
-2.65762 2.74748 0.16058
-2.40491 2.6874 -0.129726
-2.31908 2.66712 0.0689335
-2.50012 2.6325 0.106157
-2.38137 2.837 -0.112526
-2.56241 2.80238 -0.0753025
-2.47658 2.7821 0.123357
-3.50303 -3.76846 -0.636668
-3.49422 -3.29308 -1.15018
-3.31427 -3.71149 -1.25136
-2.90724 -3.34218 -0.858121
-3.49863 -3.53077 -0.893424
-3.40865 -3.73997 -0.944014
-3.20514 -3.55532 -0.747394
-3.40425 -3.50228 -1.20077
-3.20073 -3.31763 -1.00415
-3.11076 -3.52683 -1.05474
-4.0054 2.49156 -0.125899
-3.5956 2.50054 -0.194198
-3.83412 2.54803 0.0159
-3.8005 2.49605 -0.160049
-3.90253 2.36404 -0.0425255
-3.91976 2.5198 -0.0549995
-3.69763 2.36853 -0.076675
-3.71486 2.52428 -0.089149
-3.81689 2.39228 0.028374
-3.73452 -3.68531 -1.05781
-3.52439 -3.6984 -1.15459
-3.61437 -3.4892 -1.104
-3.61877 -3.72688 -0.84724
-6.37864 0.944563 0.328331
-6.25891 0.813305 0.581838
-6.65332 0.772267 0.635298
-6.31878 0.878934 0.455085
-6.41941 0.696025 0.310797
-6.51598 0.858415 0.481815
-6.35955 0.630395 0.43755
-6.45612 0.792786 0.608568
-6.55675 0.609877 0.46428
1.62066 -0.841518 -0.540229
1.89324 0.238579 -0.195511
2.01627 -0.690819 -0.723027
2.25185 -0.211859 0.261412
1.75695 -0.30147 -0.36787
1.81846 -0.766169 -0.631628
1.93625 -0.526689 -0.139408
1.95475 -0.22612 -0.459269
2.07254 0.01336 0.0329505
2.13406 -0.451339 -0.230807
-2.56949 2.06853 0.305158
-2.91403 1.60744 0.564909
-3.02709 2.08175 0.021586
-2.87501 2.07662 0.630995
-2.74176 1.83799 0.435033
-2.79829 2.07514 0.163372
-2.72225 2.07258 0.468077
-2.97056 1.8446 0.293247
-2.89452 1.84203 0.597952
-2.95105 2.07919 0.32629
-5.39985 0.358755 0.933432
-5.34934 0.453264 0.543553
-5.56264 0.558471 0.829524
-5.70805 0.297641 0.954678
-5.37459 0.40601 0.738492
-5.48124 0.458613 0.881478
-5.55395 0.328198 0.944055
-5.45599 0.505868 0.686538
-5.52869 0.375452 0.749116
-5.63535 0.428056 0.892101
-4.17913 0.323834 -0.696515
-4.36183 0.516245 -0.417662
-4.60784 0.019305 -0.528365
-4.46586 0.364911 -0.72315
-4.27048 0.42004 -0.557088
-4.39349 0.17157 -0.61244
-4.3225 0.344372 -0.709832
-4.48483 0.267775 -0.473013
-4.41384 0.440578 -0.570406
-4.53685 0.192108 -0.625757
-5.9377 0.438799 -0.558905
-5.87927 0.529091 -0.848565
-6.25926 0.555743 -0.831354
-6.07929 0.245277 -0.969453
-5.90849 0.483945 -0.703735
-6.09848 0.497271 -0.695129
-6.00849 0.342038 -0.764179
-6.06927 0.542417 -0.839959
-5.97928 0.387184 -0.909009
-6.16928 0.40051 -0.900404
-3.64743 2.72944 0.180305
-3.74077 2.63873 0.0981025
-3.72354 2.48298 0.110576
-3.62151 2.61499 -0.0069465
-3.98168 0.388062 0.141859
-3.76543 0.320245 0.603448
-3.81143 0.566919 0.204361
-3.70331 0.533011 0.435156
-4.03868 0.589149 0.228897
-3.87356 0.354154 0.372653
-3.93055 0.55524 0.459691
-6.17342 0.027823 -0.593282
-6.59748 0.255766 -0.966739
-6.35964 0.547779 -0.240473
-6.21634 0.291783 -0.712318
-6.42837 0.405755 -0.899047
-6.30945 0.551761 -0.535914
-6.38545 0.141794 -0.78001
-6.26653 0.287801 -0.416878
-6.47856 0.401772 -0.603606
-5.98474 0.742767 -0.66955
-5.96122 0.590783 -0.614227
-6.122 0.649255 -0.750452
-5.93201 0.635929 -0.759057
-5.86659 0.345457 -0.129882
-5.96054 -0.099592 -0.035866
-6.02 0.18664 -0.361582
-6.11312 0.446618 -0.185177
-5.91357 0.122933 -0.082874
-6.06698 -0.0358845 -0.314574
-6.16009 0.224094 -0.13817
-1.10421 0.363269 -0.931684
-0.773878 0.737644 -0.67519
-0.520452 0.269543 -0.962988
-0.384634 0.008888 -0.353445
-0.939043 0.550457 -0.803437
-0.812329 0.316406 -0.947336
-0.74442 0.186079 -0.642564
-0.647165 0.503594 -0.819089
-0.579256 0.373266 -0.514317
-0.452543 0.139215 -0.658216
-2.85287 -3.00249 -1.21636
-3.23054 -2.92385 -1.196
-3.06719 -3.3306 -1.25351
-2.88006 -3.17233 -1.03724
-3.06889 -3.13301 -1.02706
-2.98722 -3.33639 -1.05581
-3.0417 -2.96317 -1.20618
-2.96003 -3.16654 -1.23493
-3.14886 -3.12722 -1.22475
-3.38618 -2.05134 -0.098565
-2.37808 -2.56123 -0.134541
-2.49252 -2.47812 0.422472
-2.41131 -1.89586 0.044632
-2.88213 -2.30628 -0.116553
-2.93935 -2.26473 0.161954
-2.89875 -1.9736 -0.0269665
-2.4353 -2.51967 0.143966
-2.39469 -2.22855 -0.0449545
-2.45192 -2.18699 0.233552
-1.85713 -0.413967 0.42138
-1.65927 -0.390905 0.920431
-1.2503 -0.077569 0.384148
-1.80595 -0.084043 0.474172
-1.70702 -0.072512 0.723698
-1.50254 0.084156 0.455557
-1.7582 -0.402436 0.670905
-1.55371 -0.245768 0.402764
-1.45478 -0.234237 0.652289
-2.09043 2.55218 0.167395
-2.0659 2.66009 -0.048555
-2.19298 2.68445 0.126765
-2.18072 2.73841 0.0187895
-2.07816 2.60614 0.05942
-2.21652 2.53485 0.109564
-2.20426 2.58881 0.001589
-4.01665 2.44382 0.136481
-3.97233 2.67361 0.084512
-3.92539 2.49592 0.0761905
-3.99449 2.55872 0.110496
-4.01103 2.46769 0.005291
-3.90323 2.61082 0.050206
-3.98887 2.58259 -0.0206935
-3.92754 1.80484 -0.220103
-4.28096 1.83407 -0.225431
-4.13592 1.88983 -0.461486
-4.146 2.03152 -0.278406
-4.10425 1.81945 -0.222767
-4.03173 1.84734 -0.340795
-4.03677 1.91818 -0.249254
-4.20844 1.86195 -0.343458
-4.21348 1.9328 -0.251918
-4.14096 1.96068 -0.369946
-4.04038 -5 0.949212
-3.62468 -5 1.26221
-3.84559 -4.54287 1.07336
-3.71487 -5 0.728948
-3.83253 -5 1.10571
-3.94299 -4.77144 1.01129
-3.87763 -5 0.83908
-3.73513 -4.77144 1.16779
-3.66977 -5 0.99558
-3.78023 -4.77144 0.901156
-1.37334 0.812082 -0.583544
-0.975724 0.961208 -0.275823
-1.19336 -0.166381 -0.273753
-1.17453 0.886645 -0.429683
-1.07361 0.774863 -0.629367
-1.28335 0.32285 -0.428648
-0.874801 0.849426 -0.475506
-1.08454 0.397413 -0.274788
-0.983618 0.285631 -0.474471
-3.83515 -1.82017 -0.741539
-3.34976 -1.58414 -0.592596
-3.50394 -2.07825 -1.02313
-3.59245 -1.70215 -0.667067
-3.66955 -1.94921 -0.882335
-3.61067 -1.93575 -0.420052
-3.42685 -1.83119 -0.807863
-3.36797 -1.81774 -0.345581
-3.44506 -2.06479 -0.560848
-2.72946 0.769161 0.094533
-2.75119 0.681139 -0.326037
-2.98528 1.02631 -0.281501
-3.08113 0.734324 -0.34324
-2.74032 0.72515 -0.115752
-2.85737 0.897737 -0.093484
-2.90529 0.751742 -0.124353
-2.86823 0.853726 -0.303769
-2.91616 0.707731 -0.334639
-3.03321 0.880319 -0.31237
-2.94023 -2.47675 -0.674772
-3.14499 -2.03044 -0.633684
-3.22209 -2.2775 -0.848951
-3.16321 -2.26404 -0.386669
-3.03914 -4.25341 0.579285
-2.64287 -3.80807 0.20828
-2.47531 -4.18593 0.714333
-2.97264 -3.41482 0.618231
-2.84101 -4.03074 0.393783
-2.75723 -4.21967 0.646809
-3.00589 -3.83412 0.598758
-2.55909 -3.997 0.461307
-2.80776 -3.61144 0.413255
-2.72397 -3.80037 0.666282
-2.39684 -0.595487 -0.803365
-1.98884 -0.54749 -0.836812
-2.24172 -0.466498 -0.098067
-2.21295 -0.01831 -0.514797
-2.19284 -0.571489 -0.820088
-2.31928 -0.530992 -0.450716
-2.3049 -0.306899 -0.659081
-2.11528 -0.506994 -0.46744
-2.1009 -0.2829 -0.675804
-2.22734 -0.242404 -0.306432
-3.36239 -4.55484 -1.31864
-3.11171 -4.25429 -0.873787
-2.86199 -4.55394 -1.36046
-2.79118 -5 -0.96439
-3.23705 -4.40456 -1.09621
-3.11219 -4.55439 -1.33955
-3.07678 -4.77742 -1.14151
-2.98685 -4.40411 -1.11712
-2.95144 -4.62714 -0.919088
-2.82658 -4.77697 -1.16243
-3.88203 2.65205 -0.416886
-3.48121 2.84727 -0.340672
-3.82273 3 -0.474998
-3.72541 2.76868 -0.627028
-3.68162 2.74966 -0.378779
-3.85238 2.82603 -0.445942
-3.80372 2.71037 -0.521957
-3.65197 2.92364 -0.407835
-3.60331 2.80798 -0.48385
-3.77407 2.88434 -0.551013
[...]
POINT_DATA 7451
 
FIELD FieldData 2
velocity 3 7451 double
-1.78003 -5.19829 0.0629384
2.14495e-029 5.02972e-029 -2.32593e-030
6.95796e-030 1.93431e-029 -3.9192e-031
1.8512e-029 5.05598e-029 -2.15454e-030
-1.24105 -3.07815 0.115428
-1.13638 -3.15235 0.0650343
-1.22225 -3.53902 0.134254
-2.94102e-017 -7.1802e-017 2.94601e-018
8.64705e-017 2.13196e-016 -1.36369e-017
4.4183e-030 -1.40742e-029 -1.6001e-030
3.12986e-029 1.7929e-029 7.96492e-031
-1.32524 -0.740595 -0.0421148
-2.01437 -0.694063 -0.0224994
-2.36945 -1.55263 -0.0653238
-0.809151 -0.463345 -0.0145112
-1.0768 -0.471569 -0.0100591
-1.48408 -0.930415 -0.0492784
-1.73453 -0.757799 -0.0247787
-1.93515 -1.21132 -0.0509348
-2.21243 -1.0811 -0.0436627
2.86924e-028 -4.61225e-031 3.13015e-031
-2.53705 0.019471 -0.00197957
-3.11741 -0.00110868 0.000712207
1.68925e-028 -5.35883e-031 2.22449e-031
-1.70882 0.00447863 -0.00435636
-2.53311 -0.00386805 -0.0102659
-4.26772e-016 2.50562e-019 -1.71448e-018
-2.93455 0.00192688 -0.000454949
-1.51222 0.0179735 -0.00564864
-2.28215 0.00522567 -0.00246067
9.99133e-029 1.37436e-029 2.38714e-031
6.66415e-029 5.775e-030 1.40927e-030
-2.02803 -0.482244 -0.0804193
-2.59703 -0.212693 -0.0218156
-3.53316e-016 -3.10258e-017 -7.66818e-018
-1.32831 -0.219266 -0.0185716
-1.65344 -0.133626 -0.0183059
-1.27689 -0.142608 -0.0386252
-1.5947 -0.0935612 -0.0245905
-2.34687 -0.326603 -0.043112
1.42147e-029 1.92963e-028 -1.81733e-030
-0.0941741 -1.53434 -0.0564914
1.44131e-029 2.2774e-028 -1.85172e-030
3.37514e-030 4.07225e-029 1.31354e-030
-0.0945991 -1.05646 -0.0104235
2.455e-016 1.97594e-015 -9.96421e-018
1.75721e-017 1.69608e-016 2.38543e-018
-0.0973822 -1.16226 -0.0119413
-0.0957683 -1.09367 -0.0372727
2.34883e-016 2.39404e-015 3.37189e-017
-2.47964 -0.0488284 -0.0110508
-2.88556 -0.0268653 -0.00149065
-2.66936 -0.0384567 -0.00695292
-2.95296 -0.013995 -0.006751
-3.23579 -0.0493763 -0.0109218
-2.88367 -0.0510965 -0.010745
-3.17835 -0.00852472 -0.00520596
-3.32638 -0.0133165 -0.00622049
-3.54326 -0.047393 -0.00617647
-1.80348 -0.973011 0.0738517
-1.35437 -0.999074 -0.196842
5.3978e-029 3.6826e-029 1.03955e-030
-1.78115 -1.09652 -0.0424278
-2.0398 -0.763141 -0.0108058
-0.984288 -0.716178 0.0412626
-1.74905 -0.702483 -0.129387
-0.965561 -0.795898 -0.0796255
-1.18248 -0.520491 -0.0498539
-2.86713 -6.00139 -0.0127215
-1.36805 -5.40703 -0.115085
-2.46539 -3.95216 0.0879254
-1.77582 -4.63327 0.0644438
-2.2242 -5.7988 -0.0993701
-2.70565 -5.00243 0.0557662
-2.61612 -5.613 0.0426004
-2.04894 -4.72894 -0.0140186
-1.89703 -5.37365 -0.119845
-2.19215 -4.47518 0.116136
-6.2169e-029 2.00517e-029 -4.82301e-030
1.00916 -0.114043 0.0258815
-5.96462e-029 1.71731e-029 4.93691e-031
-1.26334e-029 1.02338e-030 -4.4483e-031
0.61248 -0.108173 0.0351158
2.35206e-016 -5.64953e-017 1.35077e-017
1.03814e-017 -1.50017e-018 5.09931e-019
0.616669 -0.0912377 0.0234671
0.577982 -0.0479618 0.0115152
-2.00865e-016 2.39203e-017 -6.41585e-018
9.25394e-017 5.09357e-017 -9.30199e-018
9.79277e-030 6.44767e-030 -8.7793e-031
-1.87058 -1.05798 0.120161
1.00318e-029 5.83271e-030 -7.52025e-031
4.71709e-017 2.99723e-017 -5.54955e-018
-1.05809 -0.589491 0.0893918
3.52056e-016 2.00363e-016 -5.34766e-017
-1.08109 -0.704454 0.112325
5.55256e-016 3.94428e-016 -5.68664e-017
-1.12488 -0.649583 0.0911073
-0.514677 -3.66492 -0.0592571
-0.322346 -4.78073 -0.123149
-0.194543 -3.64397 -0.0135038
-0.714357 -6.57382 -0.0487322
-0.436011 -4.43986 -0.0554076
-0.355776 -3.66244 -0.0397936
-0.653897 -5.36625 -0.0613523
-0.281035 -4.48351 -0.0635884
-0.5483 -6.04326 -0.0649854
-0.464078 -5.44242 -0.0257423
-0.0537389 -1.43007 -0.0768761
3.59478e-030 1.38294e-028 9.80115e-030
1.95767e-030 1.23598e-028 9.12496e-030
0.0131672 -1.60185 -0.113701
-0.0386238 -1.11795 -0.0856544
-0.0344674 -1.15787 -0.0879719
-0.0260002 -1.65362 -0.105731
-7.13059e-031 -7.03638e-029 -2.68964e-030
-0.0172098 -1.16823 -0.0904323
-0.0108631 -1.07585 -0.0863383
1.55881e-029 6.03819e-029 -2.55866e-031
-1.40055 -6.31537 -0.0118151
-0.790898 -3.75146 0.00417572
-0.988187 -4.14409 0.0239113
-0.993894 -3.26685 0.00977473
-0.484603 -2.04441 -0.00449431
-1.65508 -5.88439 0.010826
-1.20841 -5.43108 0.00677044
-1.27132 -4.50493 0.0326408
1.51651e-030 3.50264e-029 2.48544e-030
2.56048e-017 7.08434e-016 6.05649e-017
-2.42133e-017 -6.04664e-016 -5.21548e-017
-0.0457155 -1.03224 -0.0765723
3.18284e-029 5.55351e-031 5.82863e-032
4.20418e-029 6.93243e-031 9.20032e-032
5.48815e-029 6.58814e-031 2.57825e-031
2.29631e-016 5.14153e-018 6.17e-019
-1.63901 -0.0414137 -0.0038223
-2.39465e-029 -5.21537e-030 -2.50638e-030
-1.61018 -0.0206813 -0.00479829
-5.98695e-017 -6.16564e-019 9.65786e-019
-1.63329 -0.0182046 -0.00559388
-3.92854e-028 1.17072e-030 -8.16355e-032
1.2511 -0.00143468 0.0011098
-1.47076e-028 3.71805e-031 -3.12909e-031
1.22001 -0.00413267 0.0027391
1.11402 -0.00623375 0.00122883
-1.85338e-016 7.71768e-019 -6.17319e-019
1.02131 -0.00302869 0.00240933
1.06799 -0.00109539 0.00320294
1.36713 -0.0040756 0.00345023
1.07751 -0.00523726 0.00391915
-1.19057 -4.58029 -0.222985
-1.65516 -4.81494 -0.508286
-2.15576 -7.17805 -0.0859681
-1.32767 -5.56121 -0.261331
-1.54407 -5.01561 -0.373986
-1.80912 -6.43623 -0.194391
-1.35208 -5.33311 -0.293213
-2.25475 -6.80894 -0.291043
-1.54824 -5.24173 -0.386314
-1.97918 -6.9345 -0.229709
9.8648e-030 1.61871e-030 -3.24699e-031
-2.09602 -0.475789 0.0546199
2.11471e-029 1.94529e-030 -4.9803e-031
9.08397e-029 7.17216e-030 -6.38339e-031
-1.2195 -0.197857 0.047057
-3.25801e-016 -3.0915e-017 1.43959e-017
4.5e-016 2.5507e-017 -1.59706e-017
-1.18204 -0.168473 0.04006
-1.22472 -0.119178 0.0298045
-7.36757e-017 -2.51422e-018 2.98111e-018
-0.998701 -1.93666 -0.0814774
-2.17602 -2.49504 -0.0831228
-1.80795 -1.13215 0.0147987
-1.25344 -1.24347 -0.0686509
-1.63008 -2.3438 -0.068298
-1.42498 -1.59202 -0.0270598
-1.16126 -1.57236 -0.0755826
-1.98656 -1.77976 -0.0401037
-1.79359 -1.97347 -0.0776007
-1.61454 -1.30201 -0.0403929
-1.93599 -0.0557858 0.000491947
1.05726e-029 1.5519e-031 -7.90675e-033
9.0859e-029 1.34901e-030 -4.31706e-031
4.2561e-029 7.21764e-031 -6.68562e-032
-1.08705 -0.0137326 0.00331344
-1.07351 -0.0235331 0.00961276
-1.16933 -0.0171294 0.00619908
-7.9441e-016 -6.24359e-018 8.44673e-018
-5.72156e-016 -8.78905e-019 4.11517e-018
-3.50647e-029 -3.36816e-030 6.40579e-030
-0.858162 -5.7403 0.0534298
-0.856073 -4.93465 0.0290408
-1.28006 -5.50953 0.0434496
-1.18188 -6.33165 0.010377
-1.54495 -3.47586 -0.0795021
-0.36071 -3.55935 0.145517
-1.44687 -4.40373 -0.0827682
-0.844838 -4.49284 -0.0258109
-2.07081 -3.82954 -0.0148077
-1.04645 -3.57102 -0.032282
-1.52894 -3.90974 -0.000719962
-2.43275 -0.0443606 0.00159431
-1.1824e-016 2.48322e-019 2.68266e-019
-2.44529 -0.0320691 0.00629369
-1.59175 -0.0293576 0.00982288
-8.53106e-029 -4.55042e-030 7.39373e-030
-1.60331 -0.0206589 0.0150337
-1.45225 -0.0276943 0.00630744
-2.77832 -0.0485272 0.00727354
-1.83506 -0.0119031 0.0103109
1.70084e-029 3.78791e-031 3.16723e-032
-1.10168 -0.0249558 0.0050946
-2.56102e-016 -4.36937e-018 6.42214e-018
-3.39727e-016 -3.00438e-018 2.27149e-018
-3.21231 -0.178821 -0.00216129
-3.45367 -0.140915 -0.00981563
-3.06768 -0.101652 -0.00440308
-2.87724 -0.075244 0.00275442
-3.48928 -0.174379 -0.00434974
-3.24968 -0.099213 -0.00598793
-3.36266 -0.0912074 0.000206895
5.77816e-017 2.57572e-019 -1.64411e-019
-1.31869e-028 -9.161e-033 1.32911e-031
-5.00964e-029 -4.24389e-031 1.51785e-031
1.23597 0.00225679 -0.000602866
-8.73374e-017 -6.76166e-020 1.40559e-019
3.75831e-029 -4.50787e-030 1.45168e-029
0.813408 0.00362917 -0.00527757
-9.1132e-017 -7.29102e-019 4.34876e-019
0.899106 -0.000490904 -0.000992411
0.82391 0.0104601 -0.00458217
-4.94364e-031 5.71122e-029 4.9889e-030
1.67385e-030 1.49028e-028 1.14693e-029
4.11575e-032 2.44289e-029 2.01379e-030
0.00776719 -1.07715 -0.0948613
-0.0103459 -1.11745 -0.0951549
-0.000302185 -1.05387 -0.0851752
4.06889e-018 6.18919e-016 7.20694e-017
1.95711e-019 -2.9534e-016 -2.73528e-017
7.65241e-018 6.08578e-016 -2.7418e-017
-0.0275274 -1.78467 -0.0322996
0.0950628 -1.5484 -0.0306273
0.0919975 -1.58098 0.0621418
0.123004 -1.60869 0.00200694
0.0505427 -1.81515 -0.0297319
0.0430961 -1.83909 0.0180139
0.076891 -1.88199 -0.0147203
0.0935051 -1.63368 0.0120316
0.10322 -1.60026 -0.0184706
0.107478 -1.6761 0.0382623
0.832643 -0.2531 -0.0760109
-7.31705e-029 5.51181e-030 1.44622e-030
1.19386 -0.045322 -0.00677615
1.10206 -0.206621 -0.00467174
0.695831 -0.05284 0.00196006
1.13641 -0.0808634 -0.00251476
0.565963 -0.0373626 -0.0399549
1.08636 -0.0918403 -0.0173381
0.771595 -0.0196608 -0.0100702
-3.48379e-017 -4.49708e-016 -9.83314e-019
1.79357e-030 2.06901e-029 3.00258e-031
-0.127084 -1.92365 -0.00559018
-0.135095 -1.93702 -0.0107504
-7.32335e-017 -9.05355e-016 -4.25822e-018
-0.273983 -2.08451 -0.0322644
-0.251453 -2.05467 -0.0537651
-1.24243e-016 -4.97466e-016 5.36344e-018
4.51859e-030 2.84724e-029 -1.68201e-031
-0.516882 -2.19322 0.0168812
2.13478e-016 1.11308e-015 1.67079e-018
5.41202e-030 -1.88169e-029 8.03142e-032
-0.359276 -2.18895 -0.0185556
3.98287e-016 2.09399e-015 2.23268e-017
-2.35927 -4.60997 -0.0532497
1.84303e-029 2.94796e-029 1.81385e-031
1.0092e-029 1.90676e-029 5.04758e-031
7.7144e-030 1.49477e-029 2.06656e-031
-1.54607 -2.61425 -0.0328691
-1.52909 -2.82508 -0.0808628
-1.5033 -2.85089 -0.0522878
-7.85763e-016 -1.2993e-015 -3.61089e-017
-4.98198e-015 -8.42035e-015 -1.55961e-016
-3.29116e-015 -5.98809e-015 -1.89228e-016
4.47958e-031 1.20161e-029 -5.07387e-031
6.93556e-031 3.40384e-029 -1.81671e-030
2.1902e-030 5.72803e-029 -3.41228e-030
-0.0338709 -0.920357 0.0368963
1.53682e-017 5.74197e-016 -2.85312e-017
2.38266e-018 6.47248e-017 -3.52406e-018
-0.0257515 -0.730388 0.0306282
-3.64049e-018 -1.22833e-016 7.22118e-018
-0.0233924 -0.933181 0.0476153
-0.0341278 -0.896354 0.0513357
-1.57415e-028 5.37655e-030 -1.37334e-030
-1.56813e-028 4.67683e-031 1.24168e-031
1.24883 -0.0217626 0.00206387
7.01677e-017 -2.98849e-019 3.09784e-019
-7.76615e-017 8.85356e-019 -3.54951e-019
1.05971 -0.0201563 0.00748556
-1.75855e-016 -7.69114e-019 1.01222e-019
1.13003 0.00260814 0.000457147
1.01624 -0.00727287 0.000180617
-2.10991e-019 -5.65442e-018 -2.89644e-019
0.0371659 -2.03532 -0.135182
6.47609e-030 3.00057e-028 1.74096e-029
-0.00776403 -1.30659 -0.0849352
1.34177e-017 6.59757e-016 5.94343e-017
-0.0572343 -1.79558 -0.0771974
-0.0173618 -1.27876 -0.0946004
0.000654128 -2.14184 -0.0873488
-0.0516196 -1.88991 -0.102363
2.12366 -4.16495 0.209288
1.82411 -2.80108 -0.431319
-0.557366 -6.2356 0.298343
0.784224 -5.34041 -0.195381
2.03001 -3.9151 -0.121401
0.994647 -5.88549 -0.108481
1.61827 -5.37086 -0.141495
1.02708 -4.41975 -0.129324
1.56942 -4.36586 -0.341255
0.291076 -5.89129 0.0518524
0.0204449 -1.98736 -0.124245
-0.00105716 -2.11865 -0.120798
-0.0330426 -1.60955 -0.112412
-0.010559 -2.01729 -0.0791612
-9.27721e-005 -1.03792 0.0540179
0.0433587 -1.39778 0.0178578
0.0514693 -1.14371 0.0754221
0.00149751 -1.23875 0.0765719
0.0246236 -1.34023 0.0311862
0.0267999 -1.16583 0.0685808
-0.00131766 -1.14476 0.068348
0.0544786 -1.34365 0.0389664
0.0279283 -1.43639 0.0360969
0.0380814 -1.24089 0.0798527
3.98691e-017 -3.09363e-016 -6.27581e-018
1.57747e-016 -1.69683e-017 4.94312e-018
0.815833 -0.960776 0.011928
1.12531 -0.579312 -0.0205502
2.92956e-029 -2.47772e-029 1.05484e-029
0.499586 -0.934715 0.0262063
0.595385 -0.503397 0.034939
0.534415 -0.458648 0.0598931
0.595363 -0.283376 0.0397441
1.09784 -0.824792 0.00216146
-4.93003e-018 -2.70744e-016 -2.03933e-017
-0.0094205 -1.48732 -0.0847502
-1.2848e-030 1.13296e-028 6.18839e-030
0.0101378 -1.28132 -0.0419984
-0.0134566 -0.981491 -0.0671093
-8.08788e-018 -4.81666e-016 -5.44995e-017
-0.00302141 -0.931596 -0.0462034
0.00258088 -1.00065 -0.0677833
0.00488052 -1.40615 -0.0605604
0.00786519 -0.835994 -0.0414551
1.11031e-029 6.76448e-029 8.19376e-032
-0.687739 -6.36112 -0.0441142
1.02541e-029 2.22987e-028 9.90786e-032
1.80148e-029 1.06374e-028 6.87801e-031
-0.51892 -4.06287 -0.00789657
-5.74492e-016 -5.6582e-015 -7.81139e-018
5.20599e-030 -5.22967e-029 8.52229e-030
-0.32903 -4.08241 -0.0210145
-0.499128 -4.04576 -0.0602971
-4.80718e-016 -4.91113e-015 -5.88177e-017
1.2909 -0.00139325 0.000382529
-5.67203e-029 4.74719e-032 -2.00341e-032
-5.88321e-029 9.82337e-032 5.7857e-032
-9.94788e-029 1.58349e-031 5.56135e-032
0.963632 0.000860167 4.62118e-005
0.965942 -0.000970106 -0.00138425
0.959522 9.32273e-005 -0.000786473
-5.70266e-016 -2.6054e-019 6.79146e-019
3.73167e-029 -2.90838e-019 -5.48242e-031
7.42376e-017 -1.04544e-020 -1.36989e-019
0.294176 -1.29817 -0.0239636
0.554202 -2.13907 -0.091068
0.442103 -1.89828 0.137137
0.136641 -1.79827 -0.0429019
0.513744 -1.97313 -0.014577
0.418022 -1.6411 0.0644358
0.173538 -1.77124 -0.00690392
0.556135 -2.24198 0.0147253
0.310838 -1.97452 -0.0636503
0.306282 -2.0427 0.0182459
-2.07345e-028 -1.21383e-031 2.97457e-032
-1.25204e-028 -1.78479e-031 3.03796e-031
-1.53387e-028 3.21694e-032 1.73673e-031
1.23228 0.000503145 -0.000733518
1.13878e-018 2.29483e-019 -1.39558e-021
1.09141e-018 -1.81103e-020 -5.31286e-021
1.02573 -0.000662175 -0.00363181
2.63021e-018 1.25272e-020 2.57773e-031
0.940241 0.0063814 -0.00271482
1.05497 0.000438454 -0.00386427
3.88934e-029 3.0548e-029 -3.83191e-030
-1.79674 -1.86924 0.27506
1.26297e-029 1.02886e-029 -1.80832e-030
-1.35285 -1.16554 0.187224
-1.136 -0.728048 0.113983
2.97402e-015 2.38007e-015 -4.67036e-016
-1.82443 -1.40624 0.193876
-1.14639 -1.05024 0.201704
-1.0697 -0.743594 0.122065
-2.51057 -0.0051321 0.0144704
5.33351e-028 -2.01722e-031 -3.49557e-031
4.15135e-029 -9.12763e-032 -4.66059e-031
-2.49903 0.00842117 0.00377293
-1.71223 -0.00251498 0.00414238
-1.57222 -0.00886346 0.0173657
-2.74047 0.00519866 0.00487194
-7.1453e-029 6.14311e-031 1.34308e-030
-1.45962 0.00550175 -0.00103558
-1.57311 0.0135484 0.00684897
-1.03234e-028 2.44298e-031 1.59872e-031
-3.83083e-029 3.86598e-031 3.42717e-031
-5.82894e-029 1.92668e-030 1.21208e-030
-1.37726e-016 -1.50347e-018 1.32904e-018
-3.63771e-018 -1.84203e-020 1.10034e-020
0.848238 -0.00393105 -0.00303491
-5.04268e-017 -1.01402e-019 5.21169e-019
0.788473 -0.00737938 -0.0103869
0.838883 -0.0132096 -0.00365077
-2.18691e-028 1.32059e-031 3.88718e-031
1.05483 0.000889309 -0.00352202
0.897641 -0.000309774 -0.00216215
0.95864 -0.00438909 -0.0028504
1.36674 -0.0103696 -0.00138008
1.40079 -0.00244143 0.00141614
1.25535 -0.00630154 -0.00125224
-4.88718e-029 1.88684e-030 1.37768e-032
-9.07665e-029 4.86215e-031 2.32432e-031
1.60461e-016 5.07005e-019 -1.77179e-018
1.37274e-016 2.22919e-019 -2.02765e-018
0.780904 -0.012209 -0.00373881
1.25472e-017 7.58886e-020 -2.19616e-019
0.802341 -0.00927038 -0.0103972
-1.66098e-028 -8.22339e-031 2.1593e-031
1.22924 0.00713366 -0.000615041
-1.12075e-028 -5.83046e-031 9.28671e-033
0.805674 0.000303845 -0.000193829
-2.78678e-016 -2.77917e-018 9.11056e-019
1.01213 0.00398198 -0.000881619
0.84183 0.00577892 -0.000224847
1.28895 0.00601101 0.000131704
0.885468 0.0123246 -0.00461704
-4.60864e-029 3.00724e-031 -3.97332e-031
-1.33668e-028 8.90034e-032 -9.31598e-031
-1.55798e-028 9.84607e-031 -7.28659e-031
9.87733e-017 -1.58202e-018 2.66956e-018
-1.06523e-016 1.89203e-018 -2.44306e-018
0.822895 -0.0101308 0.0176629
-6.92747e-017 1.1258e-018 -1.22004e-018
0.852668 -0.0090023 0.0125057
0.854479 -0.0108939 0.00818629
-3.2662e-029 6.85292e-029 5.78285e-030
0.730532 -1.95153 -0.193253
-3.8942e-029 5.6175e-029 1.24411e-029
1.15304 -1.61738 -0.197695
0.539843 -0.98243 -0.0771684
1.02065e-016 -7.23721e-017 1.19788e-017
0.636464 -1.14895 -0.106218
0.528886 -0.724966 -0.153837
1.01918 -1.97928 -0.273417
0.77996 -0.945919 -0.199587
-1.36536e-029 6.76964e-030 2.71978e-030
-1.30198e-028 1.15045e-029 2.25671e-030
-1.01339e-029 3.92806e-029 2.34952e-030
0.491004 -0.0986215 -0.0886069
0.487622 -0.108755 -0.0532609
0.401773 -0.28441 -0.120938
7.01818e-030 7.78359e-030 -7.1031e-030
6.39943e-017 -8.57459e-017 -3.9974e-017
-1.04304e-016 5.87838e-017 3.00283e-017
-5.9072e-029 1.6543e-030 -2.33346e-031
4.23366e-029 2.27669e-019 -1.13712e-029
1.78635e-016 -4.44451e-019 -9.92641e-019
0.850291 -0.01652 1.99799e-005
-1.59213 -5.79762 -0.0523167
2.75032e-029 7.62065e-029 8.86847e-031
-2.16136 -5.74074 0.0100559
6.1359e-029 1.93004e-028 4.02577e-031
-1.13383 -3.35307 -0.0427935
-1.99738 -5.89632 -0.0418061
-1.13252 -3.71628 -0.0200637
-1.43292 -3.65749 -0.0556781
1.98989e-016 5.23743e-016 1.00911e-017
-1.27148 -3.48654 -0.0216355
-2.12304 -6.40859 0.16603
-2.75045 -7.13792 -0.0508511
-1.58784 -4.38898 0.384334
-1.46903 -6.5912 0.283309
-2.53949 -7.04961 0.0682151
-1.89721 -6.0657 0.356733
-2.11264 -7.07409 0.105706
-1.45862 -5.29495 0.561586
-2.37496 -6.77885 0.200075
1.22883 0.00365692 0.0006772
-2.59229e-028 -8.56165e-031 7.77205e-031
-1.08973e-028 -5.8041e-031 4.25162e-032
1.25622 0.00562627 -0.000400459
0.849602 0.00554638 -0.00107017
0.812442 0.00707937 0.00192169
1.27877 0.00726169 -0.000583641
1.20169e-028 -6.00364e-031 -1.19662e-029
1.09478 -0.00192285 -0.00335046
0.980699 0.000312768 0.000275548
-4.84637e-029 -3.00689e-031 4.48543e-032
-1.25761e-028 -2.22061e-031 -1.03132e-031
-2.30981e-028 -7.32871e-031 -1.55058e-031
3.6969e-029 6.57562e-030 1.13067e-029
0.827002 0.00458221 -0.00124159
1.87492e-016 1.36437e-018 -1.28844e-019
0.89743 0.00379218 0.00253069
-8.57807e-017 -3.8478e-019 -7.68107e-020
0.819287 0.00402913 0.000233502
-7.06165e-029 6.7059e-032 4.77367e-033
-1.35682e-028 1.44317e-032 -2.30552e-031
1.28883 -0.000546133 -0.000417499
-2.32205e-028 4.0346e-031 -4.96381e-031
2.36759e-016 -9.44823e-020 7.36741e-019
1.05688 -0.000658372 0.00062325
-1.87351e-016 6.31948e-019 -3.67273e-019
1.07928 -0.00021 0.00380999
8.75017e-017 1.67399e-019 5.42639e-019
1.0262 -0.00446742 0.00198829
1.221 0.00482957 -0.00212835
-2.58239e-028 -5.74081e-031 2.44621e-031
1.39194 0.00387148 0.000742106
0.946946 0.00272364 -0.00280501
1.23688 0.00689587 0.001529
1.0252 -0.00060982 0.00291213
1.39685 0.0066219 -0.000918301
1.04485 0.00514436 -0.000167282
4.03079e-029 4.46997e-031 -2.60579e-031
-1.11396 -0.0182338 0.0149253
2.76055e-016 3.01738e-018 -2.31446e-017
-1.47107 -0.0156158 0.0138574
-2.28901 -0.0394355 0.00929308
-4.05892e-030 1.5007e-028 -9.08493e-030
-1.42732e-031 2.59765e-028 -1.61946e-029
0.0329109 -1.77561 0.0968322
-0.00279042 -1.79151 0.0984041
0.0402757 -1.3469 0.0862121
-5.04383e-018 2.77608e-016 -1.69754e-017
0.0274075 -1.53376 0.0926799
-0.00182302 -1.27515 -0.0135589
-0.0536507 -1.19797 -0.0373964
-0.00889219 -1.18149 0.0059125
-0.00134785 -1.27648 -0.0197518
-0.0310421 -1.3166 -0.0257505
-0.00890841 -1.22329 -0.00408734
-0.0016129 -1.29011 -0.0219344
-0.0267942 -1.24896 -0.0132698
-0.0189091 -1.29458 -0.0272092
-0.00389702 -1.24324 -0.0111712
-0.0350315 -1.40556 -0.0612256
-0.007684 -1.41294 -0.0484919
-0.00489219 -1.41327 -0.0407313
2.55001e-028 5.42187e-030 1.87357e-030
4.18039e-028 1.02028e-029 1.93642e-030
7.83606e-029 9.44581e-031 2.59578e-031
-1.95084 -0.0288428 -0.0101124
-1.83762 -0.0328081 -0.0148833
-1.85211 -0.031369 -0.00861257
-4.41175e-016 3.80417e-018 -3.41808e-018
-5.24064e-016 -1.0387e-017 -3.99229e-018
-4.98925e-016 -1.12675e-017 -5.05163e-018
1.05276e-029 4.35298e-029 -1.36968e-030
-2.13776 -6.33166 0.0363059
5.84964e-029 2.89427e-028 -6.12244e-031
2.21153e-029 1.11032e-028 -3.07979e-030
-1.36959 -5.68449 0.169683
-4.481e-030 -3.67716e-029 -1.18898e-029
-6.71798e-016 -3.61169e-015 1.49155e-016
-1.25249 -5.68403 0.0578187
-1.21205 -5.61414 0.184338
-4.98901e-016 -2.90703e-015 8.00738e-017
-0.0198745 -1.21685 -0.0384411
-0.0353371 -1.26162 -0.0405881
-0.0184597 -1.3636 -0.0566954
-0.00702257 -1.3741 -0.0250096
-2.74461e-028 -6.19882e-031 8.28124e-031
-4.6228e-029 6.4586e-032 8.65465e-032
-1.50594e-028 1.15679e-030 2.48516e-031
4.66917e-029 -9.04661e-030 -8.18633e-030
1.00636 0.00752386 -0.00758255
6.2014e-029 -2.95559e-019 2.18485e-019
0.8918 -0.00808524 -0.000982076
4.31594e-029 -7.38481e-030 -1.00669e-029
0.940413 0.002179 0.00022915
-1.31054 -7.06466 -0.0705602
-1.16907 -6.05282 -0.0449603
-1.5277 -6.7016 -0.0559209
-1.58434 -6.27538 -0.0524612
-1.05155 -7.07178 -0.0676728