# vtk DataFile Version 2.0 
output.vtk, Created by Freefem++, via gregorio
ASCII
DATASET UNSTRUCTURED_GRID
POINTS 7451 double
-3.79965 2.23652 0.040848
-4.13429 2.05574 0.276253
-4.09122 2.24524 0.070091
-4.01836 2.27766 0.330071
-3.96697 2.14613 0.158551
-3.94543 2.24088 0.0554695
-3.90901 2.25709 0.185459
-4.11275 2.15049 0.173172
-4.07633 2.1667 0.303162
-4.05479 2.26145 0.200081
-4.81817 0.732763 -0.840268
-4.76136 0.37264 -0.736193
-5.12328 0.495929 -0.550642
-4.73872 0.559667 -0.434419
-4.78977 0.552702 -0.788231
-4.97072 0.614346 -0.695455
-4.77845 0.646215 -0.637344
-4.94232 0.434285 -0.643417
-4.75004 0.466153 -0.585306
-4.931 0.527798 -0.49253
-7.58244 -0.891248 -0.453516
-8 -0.559587 0.124298
-7.26059 -0.264226 0.250847
-7.58828 -0.999993 0.00381
-7.79122 -0.725418 -0.164609
-7.42152 -0.577737 -0.101334
-7.58536 -0.94562 -0.224853
-7.6303 -0.411906 0.187573
-7.79414 -0.77979 0.064054
-7.42444 -0.632109 0.127328
-5.46564 0.048234 0.998836
-5.51396 -0.351144 0.936321
-5.02851 -0.125769 0.598961
-5.56665 -0.148801 0.504295
-5.4898 -0.151455 0.967578
-5.24708 -0.0387675 0.798898
-5.51614 -0.0502835 0.751565
-5.27124 -0.238457 0.767641
-5.5403 -0.249972 0.720308
-5.29758 -0.137285 0.551628
-4.20269 -2.80441 0.102764
-3.63085 -2.57461 -0.287529
-4.13183 -2.29387 0.255347
-4.14432 -2.47254 -0.273935
-3.91677 -2.68951 -0.0923825
-4.16726 -2.54914 0.179055
-4.1735 -2.63848 -0.0855855
-3.88134 -2.43424 -0.016091
-3.88759 -2.52358 -0.280732
-4.13807 -2.38321 -0.009294
-6.25062 -0.085247 0.575431
-6.51584 -0.423084 -0.15939
-6.46019 0.447486 0.293263
-6.75561 -0.174737 0.413139
-6.38323 -0.254165 0.20802
-6.35541 0.181119 0.434347
-6.88822 -0.343655 0.0457285
-6.86039 0.09163 0.272055
-6.48801 0.012201 0.0669365
-4.88162 0.371746 0.655425
-4.51246 -0.112716 0.623981
-4.65723 0.09269 0.995695
-4.69704 0.129515 0.639703
-4.95507 0.122989 0.627193
-4.76942 0.232218 0.82556
-4.77049 -0.119243 0.611471
-4.58484 -0.010013 0.809838
-4.84287 -0.0165395 0.797328
-3.75099 1.20677 0.090288
-3.64118 0.745776 0.266863
-4.09568 0.790235 0.315934
-3.78936 1.07086 0.69071
-3.69609 0.976272 0.178575
-3.92333 0.998502 0.203111
-3.77017 1.13882 0.390499
-3.86843 0.768006 0.291399
-3.71527 0.908319 0.478787
-3.94252 0.930549 0.503322
-2.18572 0.40145 0.915881
-1.75478 0.245881 0.526965
-1.94554 -0.013967 0.999902
-1.76886 0.356252 0.93439
-1.97025 0.323665 0.721423
-2.06563 0.193741 0.957891
-1.97729 0.378851 0.925135
-1.85016 0.115957 0.763433
-1.76182 0.301067 0.730678
-1.8572 0.171143 0.967146
-5.06116 0.824959 0.710182
-4.88551 0.773989 0.80113
-4.92155 0.772883 0.437198
-5.01596 0.602336 0.857802
-4.97333 0.799474 0.755656
-4.99135 0.798921 0.57369
-5.03856 0.713647 0.783992
-4.90353 0.773436 0.619164
-4.95074 0.688163 0.829466
-4.96876 0.687609 0.6475
-2.34262 2.51752 0.051733
-2.4672 2.85727 -0.311185
-2.29554 2.81673 0.086134
-2.65762 2.74748 0.16058
-2.40491 2.6874 -0.129726
-2.31908 2.66712 0.0689335
-2.50012 2.6325 0.106157
-2.38137 2.837 -0.112526
-2.56241 2.80238 -0.0753025
-2.47658 2.7821 0.123357
-3.50303 -3.76846 -0.636668
-3.49422 -3.29308 -1.15018
-3.31427 -3.71149 -1.25136
-2.90724 -3.34218 -0.858121
-3.49863 -3.53077 -0.893424
-3.40865 -3.73997 -0.944014
-3.20514 -3.55532 -0.747394
-3.40425 -3.50228 -1.20077
-3.20073 -3.31763 -1.00415
-3.11076 -3.52683 -1.05474
-4.0054 2.49156 -0.125899
-3.5956 2.50054 -0.194198
-3.83412 2.54803 0.0159
-3.8005 2.49605 -0.160049
-3.90253 2.36404 -0.0425255
-3.91976 2.5198 -0.0549995
-3.69763 2.36853 -0.076675
-3.71486 2.52428 -0.089149
-3.81689 2.39228 0.028374
-3.73452 -3.68531 -1.05781
-3.52439 -3.6984 -1.15459
-3.61437 -3.4892 -1.104
-3.61877 -3.72688 -0.84724
-6.37864 0.944563 0.328331
-6.25891 0.813305 0.581838
-6.65332 0.772267 0.635298
-6.31878 0.878934 0.455085
-6.41941 0.696025 0.310797
-6.51598 0.858415 0.481815
-6.35955 0.630395 0.43755
-6.45612 0.792786 0.608568
-6.55675 0.609877 0.46428
1.62066 -0.841518 -0.540229
1.89324 0.238579 -0.195511
2.01627 -0.690819 -0.723027
2.25185 -0.211859 0.261412
1.75695 -0.30147 -0.36787
1.81846 -0.766169 -0.631628
1.93625 -0.526689 -0.139408
1.95475 -0.22612 -0.459269
2.07254 0.01336 0.0329505
2.13406 -0.451339 -0.230807
-2.56949 2.06853 0.305158
-2.91403 1.60744 0.564909
-3.02709 2.08175 0.021586
-2.87501 2.07662 0.630995
-2.74176 1.83799 0.435033
-2.79829 2.07514 0.163372
-2.72225 2.07258 0.468077
-2.97056 1.8446 0.293247
-2.89452 1.84203 0.597952
-2.95105 2.07919 0.32629
-5.39985 0.358755 0.933432
-5.34934 0.453264 0.543553
-5.56264 0.558471 0.829524
-5.70805 0.297641 0.954678
-5.37459 0.40601 0.738492
-5.48124 0.458613 0.881478
-5.55395 0.328198 0.944055
-5.45599 0.505868 0.686538
-5.52869 0.375452 0.749116
-5.63535 0.428056 0.892101
-4.17913 0.323834 -0.696515
-4.36183 0.516245 -0.417662
-4.60784 0.019305 -0.528365
-4.46586 0.364911 -0.72315
-4.27048 0.42004 -0.557088
-4.39349 0.17157 -0.61244
-4.3225 0.344372 -0.709832
-4.48483 0.267775 -0.473013
-4.41384 0.440578 -0.570406
-4.53685 0.192108 -0.625757
-5.9377 0.438799 -0.558905
-5.87927 0.529091 -0.848565
-6.25926 0.555743 -0.831354
-6.07929 0.245277 -0.969453
-5.90849 0.483945 -0.703735
-6.09848 0.497271 -0.695129
-6.00849 0.342038 -0.764179
-6.06927 0.542417 -0.839959
-5.97928 0.387184 -0.909009
-6.16928 0.40051 -0.900404
-3.64743 2.72944 0.180305
-3.74077 2.63873 0.0981025
-3.72354 2.48298 0.110576
-3.62151 2.61499 -0.0069465
-3.98168 0.388062 0.141859
-3.76543 0.320245 0.603448
-3.81143 0.566919 0.204361
-3.70331 0.533011 0.435156
-4.03868 0.589149 0.228897
-3.87356 0.354154 0.372653
-3.93055 0.55524 0.459691
-6.17342 0.027823 -0.593282
-6.59748 0.255766 -0.966739
-6.35964 0.547779 -0.240473
-6.21634 0.291783 -0.712318
-6.42837 0.405755 -0.899047
-6.30945 0.551761 -0.535914
-6.38545 0.141794 -0.78001
-6.26653 0.287801 -0.416878
-6.47856 0.401772 -0.603606
-5.98474 0.742767 -0.66955
-5.96122 0.590783 -0.614227
-6.122 0.649255 -0.750452
-5.93201 0.635929 -0.759057
-5.86659 0.345457 -0.129882
-5.96054 -0.099592 -0.035866
-6.02 0.18664 -0.361582
-6.11312 0.446618 -0.185177
-5.91357 0.122933 -0.082874
-6.06698 -0.0358845 -0.314574
-6.16009 0.224094 -0.13817
-1.10421 0.363269 -0.931684
-0.773878 0.737644 -0.67519
-0.520452 0.269543 -0.962988
-0.384634 0.008888 -0.353445
-0.939043 0.550457 -0.803437
-0.812329 0.316406 -0.947336
-0.74442 0.186079 -0.642564
-0.647165 0.503594 -0.819089
-0.579256 0.373266 -0.514317
-0.452543 0.139215 -0.658216
-2.85287 -3.00249 -1.21636
-3.23054 -2.92385 -1.196
-3.06719 -3.3306 -1.25351
-2.88006 -3.17233 -1.03724
-3.06889 -3.13301 -1.02706
-2.98722 -3.33639 -1.05581
-3.0417 -2.96317 -1.20618
-2.96003 -3.16654 -1.23493
-3.14886 -3.12722 -1.22475
-3.38618 -2.05134 -0.098565
-2.37808 -2.56123 -0.134541
-2.49252 -2.47812 0.422472
-2.41131 -1.89586 0.044632
-2.88213 -2.30628 -0.116553
-2.93935 -2.26473 0.161954
-2.89875 -1.9736 -0.0269665
-2.4353 -2.51967 0.143966
-2.39469 -2.22855 -0.0449545
-2.45192 -2.18699 0.233552
-1.85713 -0.413967 0.42138
-1.65927 -0.390905 0.920431
-1.2503 -0.077569 0.384148
-1.80595 -0.084043 0.474172
-1.70702 -0.072512 0.723698
-1.50254 0.084156 0.455557
-1.7582 -0.402436 0.670905
-1.55371 -0.245768 0.402764
-1.45478 -0.234237 0.652289
-2.09043 2.55218 0.167395
-2.0659 2.66009 -0.048555
-2.19298 2.68445 0.126765
-2.18072 2.73841 0.0187895
-2.07816 2.60614 0.05942
-2.21652 2.53485 0.109564
-2.20426 2.58881 0.001589
-4.01665 2.44382 0.136481
-3.97233 2.67361 0.084512
-3.92539 2.49592 0.0761905
-3.99449 2.55872 0.110496
-4.01103 2.46769 0.005291
-3.90323 2.61082 0.050206
-3.98887 2.58259 -0.0206935
-3.92754 1.80484 -0.220103
-4.28096 1.83407 -0.225431
-4.13592 1.88983 -0.461486
-4.146 2.03152 -0.278406
-4.10425 1.81945 -0.222767
-4.03173 1.84734 -0.340795
-4.03677 1.91818 -0.249254
-4.20844 1.86195 -0.343458
-4.21348 1.9328 -0.251918
-4.14096 1.96068 -0.369946
-4.04038 -5 0.949212
-3.62468 -5 1.26221
-3.84559 -4.54287 1.07336
-3.71487 -5 0.728948
-3.83253 -5 1.10571
-3.94299 -4.77144 1.01129
-3.87763 -5 0.83908
-3.73513 -4.77144 1.16779
-3.66977 -5 0.99558
-3.78023 -4.77144 0.901156
-1.37334 0.812082 -0.583544
-0.975724 0.961208 -0.275823
-1.19336 -0.166381 -0.273753
-1.17453 0.886645 -0.429683
-1.07361 0.774863 -0.629367
-1.28335 0.32285 -0.428648
-0.874801 0.849426 -0.475506
-1.08454 0.397413 -0.274788
-0.983618 0.285631 -0.474471
-3.83515 -1.82017 -0.741539
-3.34976 -1.58414 -0.592596
-3.50394 -2.07825 -1.02313
-3.59245 -1.70215 -0.667067
-3.66955 -1.94921 -0.882335
-3.61067 -1.93575 -0.420052
-3.42685 -1.83119 -0.807863
-3.36797 -1.81774 -0.345581
-3.44506 -2.06479 -0.560848
-2.72946 0.769161 0.094533
-2.75119 0.681139 -0.326037
-2.98528 1.02631 -0.281501
-3.08113 0.734324 -0.34324
-2.74032 0.72515 -0.115752
-2.85737 0.897737 -0.093484
-2.90529 0.751742 -0.124353
-2.86823 0.853726 -0.303769
-2.91616 0.707731 -0.334639
-3.03321 0.880319 -0.31237
-2.94023 -2.47675 -0.674772
-3.14499 -2.03044 -0.633684
-3.22209 -2.2775 -0.848951
-3.16321 -2.26404 -0.386669
-3.03914 -4.25341 0.579285
-2.64287 -3.80807 0.20828
-2.47531 -4.18593 0.714333
-2.97264 -3.41482 0.618231
-2.84101 -4.03074 0.393783
-2.75723 -4.21967 0.646809
-3.00589 -3.83412 0.598758
-2.55909 -3.997 0.461307
-2.80776 -3.61144 0.413255
-2.72397 -3.80037 0.666282
-2.39684 -0.595487 -0.803365
-1.98884 -0.54749 -0.836812
-2.24172 -0.466498 -0.098067
-2.21295 -0.01831 -0.514797
-2.19284 -0.571489 -0.820088
-2.31928 -0.530992 -0.450716
-2.3049 -0.306899 -0.659081
-2.11528 -0.506994 -0.46744
-2.1009 -0.2829 -0.675804
-2.22734 -0.242404 -0.306432
-3.36239 -4.55484 -1.31864
-3.11171 -4.25429 -0.873787
-2.86199 -4.55394 -1.36046
-2.79118 -5 -0.96439
-3.23705 -4.40456 -1.09621
-3.11219 -4.55439 -1.33955
-3.07678 -4.77742 -1.14151
-2.98685 -4.40411 -1.11712
-2.95144 -4.62714 -0.919088
-2.82658 -4.77697 -1.16243
-3.88203 2.65205 -0.416886
-3.48121 2.84727 -0.340672
-3.82273 3 -0.474998
-3.72541 2.76868 -0.627028
-3.68162 2.74966 -0.378779
-3.85238 2.82603 -0.445942
-3.80372 2.71037 -0.521957
-3.65197 2.92364 -0.407835
-3.60331 2.80798 -0.48385
-3.77407 2.88434 -0.551013
[...]
POINT_DATA 7451
 
FIELD FieldData 2
velocity 3 7451 double
-0.115431 -0.33375 0.00592898
1.41703e-030 3.16437e-030 -1.21904e-031
4.23062e-031 1.15656e-030 -3.44983e-032
1.17597e-030 3.10698e-030 -1.11921e-031
-0.0782134 -0.189776 0.007241
-0.0694139 -0.191484 0.00570447
-0.0749487 -0.213703 0.00804497
-1.77781e-018 -4.239e-018 1.97352e-019
5.25072e-018 1.27567e-017 -7.03524e-019
1.86862e-029 -7.96611e-030 -4.36722e-030
8.31347e-030 2.8198e-030 -1.59757e-031
-0.386153 -0.105216 0.000341415
-0.587639 -0.136132 0.00521644
-0.658184 -0.215503 0.0046553
-0.214433 -0.074454 0.00589922
-0.289099 -0.0897137 0.00812942
-0.381262 -0.140409 0.00737272
-0.502061 -0.128561 0.00546916
-0.554356 -0.165359 0.0040632
-0.632122 -0.181848 0.00611258
8.87861e-029 -2.43463e-031 2.54182e-032
-0.791933 0.00672233 -0.000570275
-1.02342 -6.13944e-005 -0.000377501
5.14216e-029 -1.97615e-031 4.6739e-032
-0.518534 0.00289857 -9.68248e-005
-0.782347 -0.000291949 -0.00236986
-1.2671e-016 1.94083e-019 -3.09151e-019
-0.937686 0.0010926 -4.70132e-005
-0.451635 0.00586494 -0.000873611
-0.696246 0.00174223 -0.000177921
3.03293e-029 2.93214e-030 5.17063e-032
2.00089e-029 1.17926e-030 2.38193e-031
-0.655777 -0.0869007 -0.010736
-0.824518 -0.0526005 -0.00404812
-1.0025e-016 -6.23454e-018 -1.06559e-018
-0.398729 -0.0425942 -0.00353742
-0.495172 -0.0297971 -0.00314079
-0.380647 -0.0272703 -0.00662956
-0.475705 -0.0204309 -0.00469818
-0.745371 -0.072006 -0.00658077
-4.02234e-030 -6.12497e-029 6.87762e-031
0.0272373 0.482786 0.0104002
-4.41362e-030 -7.20626e-029 9.48392e-031
-8.34043e-031 -1.02847e-029 -1.57189e-031
0.0238714 0.29899 0.00124675
-6.31421e-017 -6.79353e-016 6.4277e-018
-4.11659e-018 -4.15659e-017 -1.06616e-019
0.0270137 0.343358 0.00015973
0.0233134 0.281326 0.0048227
-5.90304e-017 -6.16364e-016 3.50053e-019
-0.775974 -0.0147077 -0.00239541
-0.931469 -0.00958094 -0.00115305
-0.843765 -0.0117607 -0.00148224
-0.940873 -0.00281501 -0.000998478
-1.0501 -0.0157045 -0.00259761
-0.918087 -0.015543 -0.0024791
-1.035 -0.00437161 -0.00301034
-1.08548 -0.00266472 -0.000709316
-1.17473 -0.0157188 -0.00157701
-0.527674 -0.161526 0.00255345
-0.537474 -0.0827557 -0.0142699
1.72664e-029 4.25454e-030 1.48336e-031
-0.58313 -0.138926 -0.00612709
-0.644703 -0.131428 -0.00325003
-0.291463 -0.0942736 0.00255227
-0.596165 -0.0920333 -0.0144522
-0.323469 -0.0773539 -0.00817322
-0.367978 -0.0716035 -0.00681044
-0.390184 -0.420522 -0.00917357
-0.4212 -0.240789 -0.0193989
-0.550854 -0.300455 -0.00537021
-0.214397 -0.249487 0.00211198
-0.419846 -0.351065 -0.0161141
-0.471088 -0.360705 -0.00760506
-0.353317 -0.365886 -0.00467725
-0.501521 -0.27769 -0.0121702
-0.347191 -0.285375 -0.00760537
-0.38196 -0.291354 -0.00055708
-1.51881e-029 -4.51146e-030 4.12128e-031
0.316919 0.0366927 -0.00061149
-1.86015e-029 -4.51349e-030 -4.59672e-031
-3.9247e-030 -1.31436e-031 -1.84543e-032
0.170549 0.0198398 -0.00147953
5.4972e-017 6.0241e-020 2.54827e-018
2.93853e-018 1.27612e-019 1.31648e-020
0.195636 0.011459 0.000542239
0.182054 0.0069376 0.00204356
-6.38137e-017 -1.46257e-020 -8.4167e-019
2.36985e-017 1.06987e-017 -4.03903e-019
2.54494e-030 1.11365e-030 -2.77794e-032
-0.475974 -0.191739 0.00424742
2.72227e-030 1.06742e-030 -3.32103e-032
1.18383e-017 5.72448e-018 -2.34365e-019
-0.270203 -0.116198 0.00363897
9.30812e-017 4.0323e-017 -1.97866e-018
-0.269924 -0.125772 0.00446622
1.44109e-016 7.12234e-017 -2.02235e-018
-0.297663 -0.122575 0.00294028
-0.0314566 -0.229116 -0.00689486
-0.0192728 -0.267115 -0.00569538
-0.0118594 -0.226161 -0.00290566
-0.0479976 -0.462137 -0.00600659
-0.0273542 -0.271576 -0.00609896
-0.0217978 -0.228682 -0.00507193
-0.0423654 -0.358709 -0.00730456
-0.0175325 -0.273346 -0.00531696
-0.0357673 -0.397045 -0.00610948
-0.0297279 -0.360971 -0.00465748
0.0123017 0.338689 0.0138953
-6.76969e-031 -2.46231e-029 -1.41074e-030
-3.35592e-031 -1.89871e-029 -1.17271e-030
-0.00188133 0.276136 0.0172082
0.0069534 0.174529 0.010503
0.00588376 0.17206 0.0106517
0.00474471 0.343684 0.0174784
2.17045e-029 3.59821e-030 6.31664e-029
0.00192315 0.159478 0.0114009
0.00076714 0.137243 0.0101
9.21162e-031 3.47923e-030 -6.1582e-032
-0.0881007 -0.382665 0.00268579
-0.0467006 -0.223607 0.00264903
-0.0571942 -0.236832 0.00416217
-0.0584674 -0.191209 0.00342407
-0.0270774 -0.116209 0.00185564
-0.105661 -0.369431 0.00354261
-0.0736818 -0.329234 0.00347865
-0.0784665 -0.277901 0.00449764
-2.83192e-031 -5.54118e-030 -3.08252e-031
-3.93789e-018 -8.10759e-017 -6.12769e-018
3.90522e-018 7.21648e-017 5.31292e-018
0.00846647 0.166098 0.00905483
9.51207e-030 1.60629e-031 1.19208e-032
1.2598e-029 2.03181e-031 2.33765e-032
1.64225e-029 1.77736e-031 4.99601e-032
6.61969e-017 1.45115e-018 1.3172e-019
-0.491349 -0.0119625 -0.000941981
-4.45403e-030 -4.41662e-029 -2.23179e-029
-0.48244 -0.00601658 -0.000897332
7.69248e-017 -1.75418e-019 1.89429e-019
-0.490279 -0.00545655 -0.00120023
-1.35079e-028 3.5761e-031 -5.75206e-032
0.442659 0.000324702 0.000591476
-5.00819e-029 5.59163e-032 -1.17214e-031
0.431335 -0.00183194 0.00116763
0.382584 -0.00138053 0.000302233
-6.18515e-017 8.72736e-020 -2.6943e-019
0.346417 -0.000382591 0.0011806
0.362968 0.000409456 0.000862237
0.487508 -0.00102127 0.00143786
0.366104 -0.00123445 0.00156754
-0.0741395 -0.292292 -0.0138155
-0.105951 -0.276684 -0.0185154
-0.157392 -0.516604 -0.011633
-0.0799122 -0.318734 -0.010671
-0.0971431 -0.307483 -0.0172026
-0.12357 -0.444671 -0.0155213
-0.0845344 -0.33257 -0.0141674
-0.160818 -0.456357 -0.0171626
-0.0959067 -0.303783 -0.0147294
-0.136177 -0.479081 -0.0138109
2.88237e-030 3.66777e-031 -6.03138e-032
-0.62785 -0.110426 0.00772312
6.23216e-030 4.79848e-031 -1.03594e-031
2.75001e-029 1.74341e-030 -1.32584e-031
-0.356467 -0.0452858 0.00924931
-9.32809e-017 -7.27032e-018 3.2193e-018
1.29643e-016 5.96546e-018 -3.79951e-018
-0.344989 -0.0401313 0.00798673
-0.359699 -0.0284359 0.00640091
-2.11655e-017 -7.23638e-019 7.5096e-019
-0.378678 -0.0972659 -0.012756
-0.63729 -0.214816 -0.00813104
-0.680329 -0.103841 -0.00473917
-0.383685 -0.113494 -0.0048984
-0.528638 -0.157892 -0.0112647
-0.545345 -0.110562 -0.00940524
-0.385363 -0.109529 -0.00863443
-0.691567 -0.159797 -0.00884436
-0.539777 -0.170157 -0.00544231
-0.555227 -0.12031 -0.00526334
-0.58922 -0.0144205 0.000763319
3.10108e-030 4.37748e-032 -1.58061e-033
2.74604e-029 3.87396e-031 -1.16608e-031
1.26737e-029 1.9939e-031 -1.8536e-032
-0.319688 -0.00390622 0.000732795
-0.317118 -0.00665019 0.00234644
-0.345765 -0.00481458 0.00161057
-2.27948e-016 -2.22897e-018 1.79694e-018
-1.09773e-016 -4.4713e-019 8.71172e-019
-1.01878e-029 -2.0974e-029 4.70438e-029
-0.054428 -0.368214 0.00348088
-0.0526697 -0.305117 0.0032618
-0.0809676 -0.34871 0.00407934
-0.0754474 -0.404079 0.00269896
-0.679607 -0.1372 -0.0200508
-0.374109 -0.0427677 -0.00470836
-0.549765 -0.185927 -0.0211513
-0.420666 -0.133942 -0.0134888
-0.633436 -0.236611 -0.0134932
-0.562534 -0.0903797 -0.0129828
-0.497593 -0.186479 -0.00630583
-0.758542 -0.0116023 0.000480781
-3.4695e-017 1.79164e-020 6.79943e-020
-0.760353 -0.00973998 0.00214541
-0.477846 -0.00798939 0.00256086
-2.28898e-029 -2.9969e-029 5.90371e-029
-0.478706 -0.00624397 0.00380426
-0.434316 -0.00820515 0.00156909
-0.879242 -0.0137965 0.00222275
-0.555762 -0.00351641 0.00251825
5.01001e-030 9.93307e-032 5.27251e-033
-0.324183 -0.00691983 0.00125957
-7.35493e-017 -2.82429e-018 1.4319e-018
-9.71988e-017 -1.00626e-018 4.48256e-019
-1.03558 -0.0483976 0.000827067
-1.15276 -0.0386184 -0.00231239
-0.986319 -0.0271462 -0.00011252
-0.913464 -0.0221682 0.00165634
-1.15335 -0.0473524 -0.000425542
-1.05675 -0.0267107 -0.00114254
-1.10104 -0.0266498 0.000568465
1.85376e-017 -1.46235e-019 -2.92487e-019
-4.43393e-029 2.50657e-031 3.99993e-031
-1.65235e-029 2.7987e-032 8.75755e-032
0.435141 -0.00305294 -0.000878936
-2.84637e-017 2.6024e-019 3.91955e-019
1.23184e-029 -3.17175e-029 9.59503e-029
0.269987 -0.00214233 -0.00274254
-2.94474e-017 6.63909e-020 2.99193e-019
0.30161 -0.00274117 -0.00221481
0.273029 0.000409671 -0.00185255
8.61437e-032 -8.25004e-030 -6.7211e-031
-3.19886e-031 -2.59004e-029 -1.71681e-030
-3.94227e-033 -3.04e-030 -2.32136e-031
-0.00133743 0.137602 0.0103075
0.00220314 0.145992 0.0118926
-1.25503e-005 0.132827 0.00952979
-8.24359e-019 -6.46268e-017 -6.03787e-018
-9.08858e-020 2.93902e-017 2.49428e-018
-1.39056e-018 -6.25062e-017 -5.69248e-018
0.0212318 0.743062 0.00550826
-0.0255315 0.546642 0.00715732
-0.0245934 0.606422 -0.021132
-0.0269049 0.654699 -0.00552564
-0.00731523 0.789729 0.00888507
-0.0037586 0.841766 -0.00951384
-0.00678678 0.863352 0.000496419
-0.0265179 0.628109 -0.00504453
-0.0263765 0.601586 0.00277068
-0.0270655 0.653668 -0.0149306
0.342945 0.133825 0.0183506
-2.43152e-029 -1.22246e-030 -1.30393e-031
0.419011 0.00988845 -0.00231622
0.375144 0.082178 0.00299159
0.22918 0.00489781 -9.53413e-005
0.38695 0.0235357 0.000428828
0.187009 0.00414172 0.00658246
0.3831 0.0396543 -0.00272041
0.251992 0.000801761 -0.00277106
-1.93858e-018 -2.53927e-017 -4.24892e-019
1.03984e-031 1.20554e-030 3.28867e-032
-0.00733014 -0.113719 -0.00168319
-0.00786637 -0.112674 -0.00187555
-4.1153e-018 -5.0321e-017 -9.35208e-019
-0.015767 -0.123159 -0.00367209
-0.0146681 -0.119762 -0.00476348
-7.07611e-018 -2.82885e-017 6.61886e-019
2.6551e-031 1.67639e-030 -2.13352e-032
-0.0298474 -0.127338 0.00244909
1.19817e-017 6.30535e-017 -7.03788e-019
2.00738e-029 -6.57141e-030 -1.33615e-031
-0.0204832 -0.126449 0.000460211
2.15031e-017 1.16222e-016 -8.80481e-019
-0.175413 -0.293399 0.00519394
1.38428e-030 1.97028e-030 -7.59341e-032
6.64393e-031 1.09638e-030 -3.82629e-032
4.97467e-031 8.85663e-031 -3.11972e-032
-0.108689 -0.167469 0.00652171
-0.100373 -0.164705 0.00594354
-0.0973297 -0.169172 0.00575545
-5.03063e-017 -7.68854e-017 4.09074e-018
-2.79845e-016 -4.49269e-016 2.57932e-017
-1.95393e-016 -3.32495e-016 1.61684e-017
-1.02538e-031 -2.79366e-030 9.39284e-032
-1.4134e-031 -7.24356e-030 3.02474e-031
-4.86534e-031 -1.33912e-029 6.22677e-031
0.00818074 0.30517 -0.00769208
-2.71395e-018 -1.01264e-016 4.33493e-018
-4.62893e-019 -1.20514e-017 5.57416e-019
0.00528482 0.171877 -0.00510478
6.77377e-019 2.13727e-017 -4.07834e-018
0.00449339 0.192935 -0.00782633
0.00714848 0.197916 -0.00878783
-5.1099e-029 -5.56246e-031 8.64891e-031
-5.36041e-029 1.03048e-031 4.70842e-031
0.437964 -0.00476252 -0.000620818
2.33929e-017 1.33511e-019 -4.67783e-019
-2.55337e-017 6.49457e-020 4.81562e-019
0.354003 -1.69963e-005 -0.00636683
-5.81824e-017 3.50045e-019 5.37925e-019
0.386837 0.000614146 -0.00437904
0.342218 -0.00357814 -0.00294426
6.39032e-020 1.03607e-018 5.93599e-020
0.00746042 0.454801 0.0230753
-2.23109e-030 -6.76507e-029 -3.04424e-030
0.00876083 0.247372 0.0142421
-4.7634e-018 -7.41117e-017 -1.20979e-017
0.0205582 0.43302 0.0155431
0.0082449 0.212832 0.0153252
0.0149563 0.645252 0.0187599
0.0165592 0.435834 0.0204733
0.0223226 -0.0586515 -0.0230405
0.0195085 -0.00488152 -0.0180231
-0.118679 -0.211696 -0.0200816
-0.123536 -0.0969935 -0.0285368
0.0194597 -0.0414744 -0.0224795
-0.0544059 -0.157002 -0.0245009
-0.0547155 -0.0986311 -0.0284348
-0.0397141 -0.0924378 -0.019118
-0.0453805 -0.0491243 -0.023702
-0.115069 -0.158505 -0.0249258
-0.00199235 0.434736 0.0234243
0.00735704 0.476497 0.0240042
0.00759819 0.259713 0.0166425
0.00909909 0.657022 0.0206388
0.000650948 0.539353 -0.0166209
-0.0149406 0.61557 -0.00636904
-0.014266 0.403093 -0.0182876
-0.000814215 0.577844 -0.025157
-0.00732856 0.614799 -0.0121173
-0.0082216 0.506781 -0.0188408
0.000322562 0.559322 -0.0217501
-0.0164921 0.538404 -0.0136127
-0.00918086 0.636046 -0.0145907
-0.0106253 0.511708 -0.0227706
1.74423e-017 5.70614e-017 3.84979e-018
5.34059e-017 1.59231e-018 -1.90919e-019
0.373751 0.441834 -0.0149199
0.280039 0.121818 -0.019414
1.29074e-029 3.73267e-029 4.14836e-029
0.252891 0.31244 -0.0124435
0.190327 0.120494 -0.0166105
0.283646 0.17679 -0.0176151
0.218204 0.0628171 -0.0123644
0.357446 0.266787 -0.0210713
9.5834e-019 2.36066e-017 1.77211e-018
0.0023379 0.265992 0.0124253
2.06566e-031 -1.6532e-029 -7.0144e-031
-0.00185573 0.201536 0.00506976
0.00274246 0.119655 0.00709677
1.69007e-018 3.49292e-017 4.34017e-018
0.00067326 0.108676 0.00432086
5.2887e-005 0.119758 0.0066035
-0.000641353 0.239275 0.00781736
-0.00112205 0.0950364 0.0036757
6.21655e-031 3.50924e-030 -5.51688e-032
-0.0412605 -0.345218 0.00218971
5.93242e-031 1.13849e-029 -1.17433e-031
9.9506e-031 5.18761e-030 -7.58909e-032
-0.0282322 -0.201797 0.0030922
-2.93673e-017 -2.58367e-016 4.76609e-018
2.23087e-029 -4.9931e-030 1.55507e-029
-0.0181661 -0.197513 0.0021846
-0.0265013 -0.18855 0.00134779
-2.38599e-017 -2.1188e-016 2.41957e-018
0.46813 -0.000251827 -9.55613e-005
-1.88082e-029 2.13657e-032 -5.20701e-033
-1.95456e-029 1.65763e-032 5.9279e-033
-3.32396e-029 4.60345e-032 7.63763e-033
0.321651 0.000173875 -5.46279e-005
0.322998 -0.000154547 -0.000245529
0.321016 -0.000196684 -2.79831e-006
1.32282e-029 -6.45e-020 -1.05131e-029
1.19796e-029 -1.81736e-020 1.70016e-021
2.3776e-017 6.70879e-029 -1.38755e-030
0.179318 0.659516 -0.0299264
-0.0155308 0.82547 -0.0064047
-0.0197895 0.76772 -0.0552491
0.0331672 0.731942 0.00690954
0.0807516 0.844023 -0.0265167
0.0579561 0.750009 -0.0471861
0.125702 0.787893 -0.0230012
-0.0220174 0.901717 -0.0348558
0.0469268 0.837374 -0.00135784
0.0373175 0.899887 -0.0314049
-7.00421e-029 8.4844e-032 4.01993e-032
-4.1451e-029 8.60774e-032 1.15223e-031
-5.12964e-029 3.56787e-031 -1.77119e-034
0.432184 -0.00333569 -0.000248257
1.83641e-017 -3.52987e-022 -1.04777e-019
1.82426e-017 -2.19725e-022 -8.21522e-022
0.344551 4.34807e-005 -0.00140086
8.45474e-019 1.12585e-022 -1.75699e-021
0.309085 0.00039736 -0.00121968
0.350307 -0.00200617 0.00017433
7.6785e-030 4.40143e-030 -1.46458e-031
-0.364715 -0.213137 0.00720351
2.62173e-030 1.51404e-030 -6.36199e-032
-0.250683 -0.157438 0.0059993
-0.244643 -0.12879 0.00473526
5.39173e-016 3.57383e-016 -1.8215e-017
-0.420695 -0.205941 0.00536956
-0.221902 -0.141504 0.00740728
-0.23508 -0.126356 0.00467944
-0.784496 0.000344973 0.0054659
1.67655e-028 -1.53633e-031 -2.36362e-031
1.25517e-029 -7.1416e-032 -1.54867e-031
-0.78316 0.00443978 0.00259559
-0.521696 0.00198588 0.00243407
-0.471317 -0.000771919 0.00588269
-0.865675 0.00335081 0.003132
-2.17263e-029 3.2743e-029 6.09652e-029
-0.443875 0.00367456 0.00154139
-0.47499 0.00569791 0.00317834
-3.37498e-029 3.41605e-031 2.73151e-031
-1.24379e-029 1.825e-031 1.56735e-031
-1.93347e-029 -6.79282e-031 1.53669e-031
-4.31987e-017 1.6316e-018 3.85189e-019
-1.12471e-018 1.57268e-020 3.9621e-020
0.278219 -0.00264535 -0.00205905
-1.54773e-017 3.32592e-019 5.78547e-019
0.25742 -0.00472839 -0.00200708
0.26835 0.00287641 -0.0109731
-7.31932e-029 9.5623e-031 -9.46037e-032
0.352188 -0.0050975 -0.000355808
0.295491 -0.00667852 0.000837967
0.319252 -0.00553316 0.000498675
0.484299 -0.00567095 -0.000665401
0.499144 -0.00410571 -0.000311798
0.440881 -0.00655619 -0.000851524
-1.61083e-029 -8.456e-032 -1.47699e-033
-3.0256e-029 3.93177e-031 -8.14383e-033
5.07386e-017 -2.093e-018 -2.45963e-019
4.40986e-017 -1.64552e-018 -4.11915e-019
0.259579 -0.00301166 -0.000641641
3.97278e-018 -1.70932e-019 -4.48027e-020
0.266775 -0.00386717 -0.00269991
-5.61654e-029 1.42894e-031 2.12922e-031
0.43163 0.00156176 -0.000598781
-3.74462e-029 8.61552e-032 9.30424e-032
0.268409 -0.00120077 -0.000688238
-9.10285e-017 1.1166e-020 6.24622e-019
0.342534 -0.00207057 -0.00164127
0.279321 0.000142577 -0.00070421
0.452319 -0.000864141 -0.000693171
0.294715 0.00105098 -0.00204572
-1.51181e-029 1.10442e-031 -1.2427e-031
-4.43829e-029 1.5565e-032 -2.95e-031
-5.16944e-029 2.94821e-031 -2.48174e-031
3.13316e-017 -4.98574e-019 7.96123e-019
-3.37281e-017 5.79309e-019 -7.54806e-019
0.271528 -0.00351801 0.00545279
-2.20093e-017 3.197e-019 -3.6811e-019
0.282144 -0.00277656 0.00371955
0.282097 -0.00320269 0.00269424
1.42947e-030 -8.66781e-030 2.77572e-031
-0.173825 0.128794 -0.0163257
1.88637e-030 -4.07408e-030 3.7446e-031
0.0680108 0.242996 -0.0177292
-0.0593085 0.0905058 -0.00444001
-1.41418e-017 -6.42693e-018 5.29173e-019
0.00643893 0.147968 -0.00465887
-0.0663391 0.046775 -0.00386296
-0.0683849 0.201046 -0.0146846
-0.00546152 0.084568 -0.00522544
-6.19277e-030 -2.99352e-030 -6.07072e-031
-4.92878e-029 -6.73066e-030 -3.30181e-031
-8.27235e-030 -1.68038e-029 2.65938e-031
0.196899 0.0357493 0.0281845
0.232405 0.0755436 0.0143021
0.242419 0.172103 0.0404525
2.64619e-030 5.12696e-029 -3.19183e-029
5.30729e-017 4.5845e-017 9.68028e-018
-6.68834e-017 -3.98486e-017 -1.00494e-017
-1.96341e-029 -1.744e-032 -2.74092e-032
-1.26121e-017 -1.99234e-029 -6.77541e-029
4.87635e-017 -1.48217e-018 -4.92745e-020
0.286073 -0.00162456 0.00125059
-0.092846 -0.281457 0.00237093
1.56992e-030 3.33005e-030 -4.18439e-032
-0.147616 -0.274339 -0.0034496
3.48471e-030 8.25041e-030 3.45562e-032
-0.0601092 -0.143032 0.00314423
-0.124373 -0.286911 -0.000624738
-0.060352 -0.151226 0.00206369
-0.082942 -0.156596 0.00124603
9.98744e-018 1.99288e-017 -3.29888e-019
-0.0723622 -0.143189 -0.000278992
-0.267236 -0.325317 -0.0196319
-0.245994 -0.470864 -0.0156067
-0.113683 -0.19005 -0.0105882
-0.204959 -0.282894 -0.0231234
-0.264873 -0.412096 -0.0178425
-0.185818 -0.278485 -0.0164127
-0.207634 -0.365767 -0.0219169
-0.12601 -0.211168 -0.0131879
-0.199098 -0.368422 -0.0169782
0.430173 0.00130727 0.000106801
-8.81293e-029 -2.18036e-031 3.06177e-031
-3.63201e-029 -1.63524e-031 4.37509e-032
0.441553 0.00175949 -0.000661376
0.284175 0.00208335 -0.000700424
0.269228 0.0021976 0.000604675
0.448343 0.00224682 -0.000864358
3.86647e-029 -8.27474e-030 -1.03783e-028
0.37057 -0.00134268 -0.00140949
0.327124 -0.000350708 -0.000270787
-1.5952e-029 1.48425e-032 1.39752e-032
-4.20752e-029 1.21919e-032 -1.47887e-032
-7.83198e-029 1.26933e-032 3.05991e-032
1.21629e-029 4.68557e-029 8.25792e-029
0.273404 -0.000275851 -0.000235456
5.99456e-017 2.39605e-019 -1.41628e-020
0.299016 0.000667236 0.000526165
-2.81654e-017 -8.69096e-020 1.09421e-020
0.272941 6.35091e-005 -0.000281688
-2.37711e-029 3.74655e-032 -2.04577e-032
-4.60067e-029 3.70032e-032 -9.34092e-032
0.464906 -0.000463912 0.000151975
-7.93264e-029 1.09939e-031 -1.83953e-031
7.79621e-017 -1.51883e-019 3.49797e-019
0.357138 -0.000674805 0.00058728
-6.15413e-017 3.1126e-019 -1.43318e-019
0.366531 -0.000514123 0.00169267
2.91195e-017 5.57661e-020 1.88193e-019
0.34789 -0.00194732 0.000589249
0.428955 0.00119074 -0.000603229
-8.78935e-029 3.7565e-033 9.53302e-032
0.49187 0.000234872 -4.03557e-005
0.318258 0.000359393 -0.000479333
0.432373 0.00187529 0.000403617
0.34714 -0.00122167 0.000992629
0.497021 0.00173274 -0.000812982
0.353433 0.00085645 -0.000300467
1.19793e-029 1.32778e-031 -7.3914e-032
-0.328334 -0.00560427 0.00395791
7.97809e-017 9.63068e-019 -2.93178e-018
-0.436629 -0.00508615 0.0039481
-0.706747 -0.0114912 0.00308823
1.00009e-030 -3.87798e-029 2.17519e-030
1.2727e-031 -7.0775e-029 3.88875e-030
-0.00767317 0.435191 -0.0244544
-1.63884e-005 0.429544 -0.0249918
-0.00967463 0.301189 -0.0183253
1.04507e-018 -5.3767e-017 3.62365e-018
-0.00615001 0.347527 -0.0209557
0.000687309 0.591744 0.00560698
0.0131045 0.343785 0.00753092
0.00438151 0.563028 -0.000678983
0.000282643 0.456017 0.00584389
0.00994553 0.508213 0.00814222
0.00380342 0.580933 0.00180728
0.000528754 0.531238 0.00678637
0.00881404 0.486435 0.00371633
0.00585746 0.4324 0.00687587
0.0023766 0.53745 0.00346592
0.0080669 0.341158 0.0118174
0.0020312 0.473297 0.0129641
0.00108724 0.373638 0.00880498
7.79954e-029 1.418e-030 4.24881e-031
1.30619e-028 2.72552e-030 6.1945e-031
2.34918e-029 2.8544e-031 7.61616e-032
-0.591001 -0.00764285 -0.00232655
-0.5575 -0.00919941 -0.00437929
-0.557843 -0.00970151 -0.00249497
-1.27997e-016 1.65376e-019 -1.25825e-018
-1.51681e-016 -2.78752e-018 -9.42579e-019
-1.44242e-016 -3.13315e-018 -1.39838e-018
6.17755e-031 2.13677e-030 -4.78738e-032
-0.142246 -0.383312 0.000137357
3.46003e-030 1.54994e-029 2.07575e-033
1.29478e-030 5.77774e-030 -1.03145e-031
-0.0810927 -0.279282 0.00545866
4.47425e-030 -3.64728e-030 -2.66204e-029
-3.60001e-017 -1.62954e-016 5.24986e-018