# vtk DataFile Version 2.0 
output.vtk, Created by Freefem++, via gregorio
ASCII
DATASET UNSTRUCTURED_GRID
POINTS 7451 double
-3.79965 2.23652 0.040848
-4.13429 2.05574 0.276253
-4.09122 2.24524 0.070091
-4.01836 2.27766 0.330071
-3.96697 2.14613 0.158551
-3.94543 2.24088 0.0554695
-3.90901 2.25709 0.185459
-4.11275 2.15049 0.173172
-4.07633 2.1667 0.303162
-4.05479 2.26145 0.200081
-4.81817 0.732763 -0.840268
-4.76136 0.37264 -0.736193
-5.12328 0.495929 -0.550642
-4.73872 0.559667 -0.434419
-4.78977 0.552702 -0.788231
-4.97072 0.614346 -0.695455
-4.77845 0.646215 -0.637344
-4.94232 0.434285 -0.643417
-4.75004 0.466153 -0.585306
-4.931 0.527798 -0.49253
-7.58244 -0.891248 -0.453516
-8 -0.559587 0.124298
-7.26059 -0.264226 0.250847
-7.58828 -0.999993 0.00381
-7.79122 -0.725418 -0.164609
-7.42152 -0.577737 -0.101334
-7.58536 -0.94562 -0.224853
-7.6303 -0.411906 0.187573
-7.79414 -0.77979 0.064054
-7.42444 -0.632109 0.127328
-5.46564 0.048234 0.998836
-5.51396 -0.351144 0.936321
-5.02851 -0.125769 0.598961
-5.56665 -0.148801 0.504295
-5.4898 -0.151455 0.967578
-5.24708 -0.0387675 0.798898
-5.51614 -0.0502835 0.751565
-5.27124 -0.238457 0.767641
-5.5403 -0.249972 0.720308
-5.29758 -0.137285 0.551628
-4.20269 -2.80441 0.102764
-3.63085 -2.57461 -0.287529
-4.13183 -2.29387 0.255347
-4.14432 -2.47254 -0.273935
-3.91677 -2.68951 -0.0923825
-4.16726 -2.54914 0.179055
-4.1735 -2.63848 -0.0855855
-3.88134 -2.43424 -0.016091
-3.88759 -2.52358 -0.280732
-4.13807 -2.38321 -0.009294
-6.25062 -0.085247 0.575431
-6.51584 -0.423084 -0.15939
-6.46019 0.447486 0.293263
-6.75561 -0.174737 0.413139
-6.38323 -0.254165 0.20802
-6.35541 0.181119 0.434347
-6.88822 -0.343655 0.0457285
-6.86039 0.09163 0.272055
-6.48801 0.012201 0.0669365
-4.88162 0.371746 0.655425
-4.51246 -0.112716 0.623981
-4.65723 0.09269 0.995695
-4.69704 0.129515 0.639703
-4.95507 0.122989 0.627193
-4.76942 0.232218 0.82556
-4.77049 -0.119243 0.611471
-4.58484 -0.010013 0.809838
-4.84287 -0.0165395 0.797328
-3.75099 1.20677 0.090288
-3.64118 0.745776 0.266863
-4.09568 0.790235 0.315934
-3.78936 1.07086 0.69071
-3.69609 0.976272 0.178575
-3.92333 0.998502 0.203111
-3.77017 1.13882 0.390499
-3.86843 0.768006 0.291399
-3.71527 0.908319 0.478787
-3.94252 0.930549 0.503322
-2.18572 0.40145 0.915881
-1.75478 0.245881 0.526965
-1.94554 -0.013967 0.999902
-1.76886 0.356252 0.93439
-1.97025 0.323665 0.721423
-2.06563 0.193741 0.957891
-1.97729 0.378851 0.925135
-1.85016 0.115957 0.763433
-1.76182 0.301067 0.730678
-1.8572 0.171143 0.967146
-5.06116 0.824959 0.710182
-4.88551 0.773989 0.80113
-4.92155 0.772883 0.437198
-5.01596 0.602336 0.857802
-4.97333 0.799474 0.755656
-4.99135 0.798921 0.57369
-5.03856 0.713647 0.783992
-4.90353 0.773436 0.619164
-4.95074 0.688163 0.829466
-4.96876 0.687609 0.6475
-2.34262 2.51752 0.051733
-2.4672 2.85727 -0.311185
-2.29554 2.81673 0.086134
-2.65762 2.74748 0.16058
-2.40491 2.6874 -0.129726
-2.31908 2.66712 0.0689335
-2.50012 2.6325 0.106157
-2.38137 2.837 -0.112526
-2.56241 2.80238 -0.0753025
-2.47658 2.7821 0.123357
-3.50303 -3.76846 -0.636668
-3.49422 -3.29308 -1.15018
-3.31427 -3.71149 -1.25136
-2.90724 -3.34218 -0.858121
-3.49863 -3.53077 -0.893424
-3.40865 -3.73997 -0.944014
-3.20514 -3.55532 -0.747394
-3.40425 -3.50228 -1.20077
-3.20073 -3.31763 -1.00415
-3.11076 -3.52683 -1.05474
-4.0054 2.49156 -0.125899
-3.5956 2.50054 -0.194198
-3.83412 2.54803 0.0159
-3.8005 2.49605 -0.160049
-3.90253 2.36404 -0.0425255
-3.91976 2.5198 -0.0549995
-3.69763 2.36853 -0.076675
-3.71486 2.52428 -0.089149
-3.81689 2.39228 0.028374
-3.73452 -3.68531 -1.05781
-3.52439 -3.6984 -1.15459
-3.61437 -3.4892 -1.104
-3.61877 -3.72688 -0.84724
-6.37864 0.944563 0.328331
-6.25891 0.813305 0.581838
-6.65332 0.772267 0.635298
-6.31878 0.878934 0.455085
-6.41941 0.696025 0.310797
-6.51598 0.858415 0.481815
-6.35955 0.630395 0.43755
-6.45612 0.792786 0.608568
-6.55675 0.609877 0.46428
1.62066 -0.841518 -0.540229
1.89324 0.238579 -0.195511
2.01627 -0.690819 -0.723027
2.25185 -0.211859 0.261412
1.75695 -0.30147 -0.36787
1.81846 -0.766169 -0.631628
1.93625 -0.526689 -0.139408
1.95475 -0.22612 -0.459269
2.07254 0.01336 0.0329505
2.13406 -0.451339 -0.230807
-2.56949 2.06853 0.305158
-2.91403 1.60744 0.564909
-3.02709 2.08175 0.021586
-2.87501 2.07662 0.630995
-2.74176 1.83799 0.435033
-2.79829 2.07514 0.163372
-2.72225 2.07258 0.468077
-2.97056 1.8446 0.293247
-2.89452 1.84203 0.597952
-2.95105 2.07919 0.32629
-5.39985 0.358755 0.933432
-5.34934 0.453264 0.543553
-5.56264 0.558471 0.829524
-5.70805 0.297641 0.954678
-5.37459 0.40601 0.738492
-5.48124 0.458613 0.881478
-5.55395 0.328198 0.944055
-5.45599 0.505868 0.686538
-5.52869 0.375452 0.749116
-5.63535 0.428056 0.892101
-4.17913 0.323834 -0.696515
-4.36183 0.516245 -0.417662
-4.60784 0.019305 -0.528365
-4.46586 0.364911 -0.72315
-4.27048 0.42004 -0.557088
-4.39349 0.17157 -0.61244
-4.3225 0.344372 -0.709832
-4.48483 0.267775 -0.473013
-4.41384 0.440578 -0.570406
-4.53685 0.192108 -0.625757
-5.9377 0.438799 -0.558905
-5.87927 0.529091 -0.848565
-6.25926 0.555743 -0.831354
-6.07929 0.245277 -0.969453
-5.90849 0.483945 -0.703735
-6.09848 0.497271 -0.695129
-6.00849 0.342038 -0.764179
-6.06927 0.542417 -0.839959
-5.97928 0.387184 -0.909009
-6.16928 0.40051 -0.900404
-3.64743 2.72944 0.180305
-3.74077 2.63873 0.0981025
-3.72354 2.48298 0.110576
-3.62151 2.61499 -0.0069465
-3.98168 0.388062 0.141859
-3.76543 0.320245 0.603448
-3.81143 0.566919 0.204361
-3.70331 0.533011 0.435156
-4.03868 0.589149 0.228897
-3.87356 0.354154 0.372653
-3.93055 0.55524 0.459691
-6.17342 0.027823 -0.593282
-6.59748 0.255766 -0.966739
-6.35964 0.547779 -0.240473
-6.21634 0.291783 -0.712318
-6.42837 0.405755 -0.899047
-6.30945 0.551761 -0.535914
-6.38545 0.141794 -0.78001
-6.26653 0.287801 -0.416878
-6.47856 0.401772 -0.603606
-5.98474 0.742767 -0.66955
-5.96122 0.590783 -0.614227
-6.122 0.649255 -0.750452
-5.93201 0.635929 -0.759057
-5.86659 0.345457 -0.129882
-5.96054 -0.099592 -0.035866
-6.02 0.18664 -0.361582
-6.11312 0.446618 -0.185177
-5.91357 0.122933 -0.082874
-6.06698 -0.0358845 -0.314574
-6.16009 0.224094 -0.13817
-1.10421 0.363269 -0.931684
-0.773878 0.737644 -0.67519
-0.520452 0.269543 -0.962988
-0.384634 0.008888 -0.353445
-0.939043 0.550457 -0.803437
-0.812329 0.316406 -0.947336
-0.74442 0.186079 -0.642564
-0.647165 0.503594 -0.819089
-0.579256 0.373266 -0.514317
-0.452543 0.139215 -0.658216
-2.85287 -3.00249 -1.21636
-3.23054 -2.92385 -1.196
-3.06719 -3.3306 -1.25351
-2.88006 -3.17233 -1.03724
-3.06889 -3.13301 -1.02706
-2.98722 -3.33639 -1.05581
-3.0417 -2.96317 -1.20618
-2.96003 -3.16654 -1.23493
-3.14886 -3.12722 -1.22475
-3.38618 -2.05134 -0.098565
-2.37808 -2.56123 -0.134541
-2.49252 -2.47812 0.422472
-2.41131 -1.89586 0.044632
-2.88213 -2.30628 -0.116553
-2.93935 -2.26473 0.161954
-2.89875 -1.9736 -0.0269665
-2.4353 -2.51967 0.143966
-2.39469 -2.22855 -0.0449545
-2.45192 -2.18699 0.233552
-1.85713 -0.413967 0.42138
-1.65927 -0.390905 0.920431
-1.2503 -0.077569 0.384148
-1.80595 -0.084043 0.474172
-1.70702 -0.072512 0.723698
-1.50254 0.084156 0.455557
-1.7582 -0.402436 0.670905
-1.55371 -0.245768 0.402764
-1.45478 -0.234237 0.652289
-2.09043 2.55218 0.167395
-2.0659 2.66009 -0.048555
-2.19298 2.68445 0.126765
-2.18072 2.73841 0.0187895
-2.07816 2.60614 0.05942
-2.21652 2.53485 0.109564
-2.20426 2.58881 0.001589
-4.01665 2.44382 0.136481
-3.97233 2.67361 0.084512
-3.92539 2.49592 0.0761905
-3.99449 2.55872 0.110496
-4.01103 2.46769 0.005291
-3.90323 2.61082 0.050206
-3.98887 2.58259 -0.0206935
-3.92754 1.80484 -0.220103
-4.28096 1.83407 -0.225431
-4.13592 1.88983 -0.461486
-4.146 2.03152 -0.278406
-4.10425 1.81945 -0.222767
-4.03173 1.84734 -0.340795
-4.03677 1.91818 -0.249254
-4.20844 1.86195 -0.343458
-4.21348 1.9328 -0.251918
-4.14096 1.96068 -0.369946
-4.04038 -5 0.949212
-3.62468 -5 1.26221
-3.84559 -4.54287 1.07336
-3.71487 -5 0.728948
-3.83253 -5 1.10571
-3.94299 -4.77144 1.01129
-3.87763 -5 0.83908
-3.73513 -4.77144 1.16779
-3.66977 -5 0.99558
-3.78023 -4.77144 0.901156
-1.37334 0.812082 -0.583544
-0.975724 0.961208 -0.275823
-1.19336 -0.166381 -0.273753
-1.17453 0.886645 -0.429683
-1.07361 0.774863 -0.629367
-1.28335 0.32285 -0.428648
-0.874801 0.849426 -0.475506
-1.08454 0.397413 -0.274788
-0.983618 0.285631 -0.474471
-3.83515 -1.82017 -0.741539
-3.34976 -1.58414 -0.592596
-3.50394 -2.07825 -1.02313
-3.59245 -1.70215 -0.667067
-3.66955 -1.94921 -0.882335
-3.61067 -1.93575 -0.420052
-3.42685 -1.83119 -0.807863
-3.36797 -1.81774 -0.345581
-3.44506 -2.06479 -0.560848
-2.72946 0.769161 0.094533
-2.75119 0.681139 -0.326037
-2.98528 1.02631 -0.281501
-3.08113 0.734324 -0.34324
-2.74032 0.72515 -0.115752
-2.85737 0.897737 -0.093484
-2.90529 0.751742 -0.124353
-2.86823 0.853726 -0.303769
-2.91616 0.707731 -0.334639
-3.03321 0.880319 -0.31237
-2.94023 -2.47675 -0.674772
-3.14499 -2.03044 -0.633684
-3.22209 -2.2775 -0.848951
-3.16321 -2.26404 -0.386669
-3.03914 -4.25341 0.579285
-2.64287 -3.80807 0.20828
-2.47531 -4.18593 0.714333
-2.97264 -3.41482 0.618231
-2.84101 -4.03074 0.393783
-2.75723 -4.21967 0.646809
-3.00589 -3.83412 0.598758
-2.55909 -3.997 0.461307
-2.80776 -3.61144 0.413255
-2.72397 -3.80037 0.666282
-2.39684 -0.595487 -0.803365
-1.98884 -0.54749 -0.836812
-2.24172 -0.466498 -0.098067
-2.21295 -0.01831 -0.514797
-2.19284 -0.571489 -0.820088
-2.31928 -0.530992 -0.450716
-2.3049 -0.306899 -0.659081
-2.11528 -0.506994 -0.46744
-2.1009 -0.2829 -0.675804
-2.22734 -0.242404 -0.306432
-3.36239 -4.55484 -1.31864
-3.11171 -4.25429 -0.873787
-2.86199 -4.55394 -1.36046
-2.79118 -5 -0.96439
-3.23705 -4.40456 -1.09621
-3.11219 -4.55439 -1.33955
-3.07678 -4.77742 -1.14151
-2.98685 -4.40411 -1.11712
-2.95144 -4.62714 -0.919088
-2.82658 -4.77697 -1.16243
-3.88203 2.65205 -0.416886
-3.48121 2.84727 -0.340672
-3.82273 3 -0.474998
-3.72541 2.76868 -0.627028
-3.68162 2.74966 -0.378779
-3.85238 2.82603 -0.445942
-3.80372 2.71037 -0.521957
-3.65197 2.92364 -0.407835
-3.60331 2.80798 -0.48385
-3.77407 2.88434 -0.551013
[...]
POINT_DATA 7451
 
FIELD FieldData 2
velocity 3 7451 double
-0.120243 -0.345947 0.00813757
1.48624e-030 3.34372e-030 -1.61502e-031
4.37427e-031 1.19599e-030 -4.71407e-032
1.23886e-030 3.30722e-030 -1.47248e-031
-0.0816875 -0.199119 0.0096114
-0.0718527 -0.198242 0.00777332
-0.0784858 -0.225804 0.0103976
-1.84714e-018 -4.43677e-018 2.63293e-019
5.51389e-018 1.35724e-017 -9.22005e-019
1.86526e-029 -7.98796e-030 -4.35404e-030
8.61427e-030 2.90086e-030 -1.78689e-031
-0.400666 -0.108006 0.000576894
-0.610532 -0.140314 0.00634308
-0.686537 -0.225272 0.00514091
-0.221908 -0.0760968 0.00643584
-0.299328 -0.0919418 0.0090264
-0.395571 -0.144798 0.00833374
-0.521402 -0.132391 0.00617695
-0.576789 -0.171695 0.00453145
-0.657936 -0.188884 0.00719022
9.22558e-029 -2.70347e-031 2.63434e-032
-0.824577 0.00705626 -0.000580225
-1.07112 -2.1364e-005 -0.000482923
5.33422e-029 -2.10261e-031 4.90529e-032
-0.538289 0.00319243 3.60988e-006
-0.813746 -0.000131207 -0.00246584
-1.31244e-016 2.25085e-019 -3.12942e-019
-0.978742 0.00118792 -4.04812e-005
-0.468045 0.00614178 -0.000822372
-0.723292 0.00183807 -0.000163575
3.14527e-029 3.19278e-030 5.63806e-032
2.07287e-029 1.29772e-030 2.66862e-031
-0.682318 -0.0983552 -0.0129195
-0.860212 -0.0584366 -0.0047845
-1.44189e-016 -6.08299e-018 -1.47622e-018
-0.413178 -0.0464917 -0.00382598
-0.513785 -0.0323106 -0.00339403
-0.394461 -0.0300813 -0.00736473
-0.493546 -0.0223311 -0.00491534
-0.776742 -0.080636 -0.00796119
-4.17138e-030 -6.37699e-029 1.01119e-030
0.02719 0.467308 0.00798597
-4.56265e-030 -7.51842e-029 1.39945e-030
-8.29902e-031 -1.0099e-029 -9.544e-032
0.0242208 0.302225 -0.00016685
-5.22462e-017 -5.78529e-016 9.66201e-018
-4.13194e-018 -4.19873e-017 1.22723e-019
0.0274407 0.351996 -0.00154269
0.0230654 0.273787 0.00315917
-5.93562e-017 -6.30577e-016 3.82163e-018
-0.808395 -0.0155603 -0.00239968
-0.973803 -0.00964361 -0.00180843
-0.878823 -0.0124102 -0.00118778
-0.981916 -0.00266688 -0.000985589
-1.0983 -0.0166252 -0.00293986
-0.957461 -0.01641 -0.00239282
-1.08258 -0.0045765 -0.00348924
-1.13504 -0.00256398 -0.000588059
-1.23048 -0.016511 -0.00157791
-0.549261 -0.177703 0.00415854
-0.557086 -0.0959036 -0.0184904
1.79111e-029 4.78359e-030 1.78302e-031
-0.607376 -0.156202 -0.00747883
-0.671165 -0.146194 -0.00365298
-0.302454 -0.104449 0.00307984
-0.61939 -0.105106 -0.0176588
-0.334798 -0.0886349 -0.00963831
-0.381355 -0.0803141 -0.00782441
-0.414316 -0.441898 -0.0152788
-0.447339 -0.255371 -0.0338044
-0.58345 -0.321381 -0.00884125
-0.229402 -0.281742 0.00161238
-0.446596 -0.371693 -0.0268705
-0.500112 -0.382847 -0.0128018
-0.37748 -0.396566 -0.0089416
-0.532165 -0.296394 -0.0212325
-0.370421 -0.311558 -0.014848
-0.406375 -0.317989 -0.00263164
-1.61408e-029 -5.3458e-030 7.20513e-031
0.335985 0.0435932 -0.0029361
-1.95567e-029 -5.20025e-030 -4.16705e-031
-4.13292e-030 -1.60678e-031 -6.24968e-033
0.180876 0.0239303 -0.00325793
5.81055e-017 2.42876e-018 2.47368e-018
3.10342e-018 1.5897e-019 2.0574e-021
0.206064 0.0133718 -0.00019279
0.192155 0.00836921 0.00192581
-6.7014e-017 1.61794e-020 -9.31767e-019
2.44797e-017 1.12965e-017 -6.28543e-019
2.6399e-030 1.19151e-030 -4.66725e-032
-0.495595 -0.203128 0.00758669
2.82104e-030 1.14162e-030 -4.96589e-032
1.22398e-017 6.08069e-018 -3.54454e-019
-0.280092 -0.12286 0.00590711
1.51486e-016 6.74624e-017 -2.04576e-018
-0.280091 -0.133897 0.00693266
1.49091e-016 7.58317e-017 -3.1648e-018
-0.308822 -0.130616 0.00513639
-0.0326393 -0.236046 -0.0104853
-0.0200144 -0.259367 -0.00726619
-0.0123328 -0.234166 -0.00508139
-0.050708 -0.488336 -0.010743
-0.0284084 -0.271888 -0.0088379
-0.0226836 -0.236187 -0.00793898
-0.044431 -0.374248 -0.0120327
-0.0183047 -0.274026 -0.00748349
-0.0373541 -0.401025 -0.00935756
-0.0312408 -0.377546 -0.00836748
0.0119485 0.305849 0.0112296
-6.62255e-031 -2.20921e-029 -1.17342e-030
-3.33378e-031 -1.67404e-029 -9.7124e-031
-0.00174283 0.244626 0.0145327
0.00669534 0.155301 0.00875165
0.00579284 0.152022 0.00874359
0.0048873 0.306394 0.0142699
2.16811e-029 2.49579e-030 6.29855e-029
0.00217317 0.14165 0.00972109
0.00103462 0.121363 0.00863564
9.41098e-031 3.51233e-030 -8.48696e-032
-0.0901975 -0.380533 0.00368145
-0.0481568 -0.229919 0.00406586
-0.0581452 -0.237333 0.00556007
-0.060026 -0.195067 0.00513122
-0.0276293 -0.118187 0.00282914
-0.109144 -0.375779 0.00505726
-0.0756694 -0.333831 0.00494531
-0.0813642 -0.286809 0.00636177
-2.70705e-031 -4.93863e-030 -2.49901e-031
-3.78832e-018 -7.09312e-017 -5.05838e-018
3.70358e-018 6.36067e-017 4.44091e-018
0.0080693 0.148593 0.00740358
9.83037e-030 1.66664e-031 6.57059e-033
1.3022e-029 2.13611e-031 1.90887e-032
1.69834e-029 1.8105e-031 4.64415e-032
6.81737e-017 1.49772e-018 1.07712e-019
-0.508528 -0.0124281 -0.000711699
-4.68807e-030 -4.41161e-029 -2.22881e-029
-0.49927 -0.00626396 -0.000780222
-1.78048e-017 7.99103e-019 -4.12299e-020
-0.507802 -0.00566329 -0.00112818
-1.42081e-028 3.67445e-031 -6.40369e-032
0.468273 0.000449629 0.000664696
-5.25959e-029 4.59785e-032 -1.22387e-031
0.45624 -0.00206455 0.00124245
0.402765 -0.00132171 0.00028435
-6.48123e-017 5.75873e-020 -2.88044e-019
0.363986 -0.00029888 0.00127612
0.381486 0.000579299 0.000853736
0.51626 -0.00106668 0.00154792
0.384771 -0.00119599 0.00165896
-0.0779674 -0.314567 -0.0213887
-0.113478 -0.312552 -0.0263713
-0.165694 -0.535248 -0.0191675
-0.0863503 -0.368478 -0.0159793
-0.103115 -0.338921 -0.025829
-0.130409 -0.470897 -0.0248247
-0.0900857 -0.370518 -0.0218224
-0.171432 -0.493961 -0.0273675
-0.103203 -0.347269 -0.0214987
-0.145719 -0.522283 -0.0224141
2.97655e-030 3.89961e-031 -6.54456e-032
-0.652014 -0.118621 0.00930424
6.4353e-030 5.09758e-031 -1.12494e-031
2.84962e-029 1.87263e-030 -1.45024e-031
-0.368572 -0.0482873 0.0100479
-9.60602e-017 -7.62075e-018 3.38923e-018
1.33599e-016 6.17862e-018 -3.95196e-018
-0.356514 -0.0426835 0.00868462
-0.371949 -0.0301937 0.00686587
-2.17926e-017 -7.24156e-019 7.76823e-019
-0.392962 -0.101661 -0.0140356
-0.666017 -0.226249 -0.0104975
-0.708093 -0.110673 -0.00601607
-0.398329 -0.117035 -0.00522545
-0.550727 -0.166491 -0.0132797
-0.566754 -0.116903 -0.0107973
-0.400067 -0.11356 -0.00941388
-0.72129 -0.169685 -0.010723
-0.56229 -0.17839 -0.00648138
-0.577328 -0.125866 -0.00609587
-0.611529 -0.013836 0.00144903
3.20181e-030 4.02023e-032 -4.52934e-033
2.84471e-029 3.65574e-031 -1.36841e-031
1.31121e-029 1.87161e-031 -2.33832e-032
-0.330541 -0.00353489 0.0010476
-0.328027 -0.00640002 0.00263776
-0.357807 -0.00443833 0.00184381
-2.35014e-016 -2.00968e-018 1.97232e-018
-1.13248e-016 -3.12361e-019 9.62294e-019
-1.05363e-029 -2.09394e-029 4.69927e-029
-0.0573279 -0.389112 0.00459859
-0.0548887 -0.317909 0.00466005
-0.0848087 -0.364882 0.00566463
-0.0783051 -0.415184 0.00375318
-0.715109 -0.144189 -0.0322973
-0.393414 -0.0461198 -0.0124191
-0.581063 -0.195764 -0.0350583
-0.445107 -0.14284 -0.0260297
-0.669196 -0.251207 -0.0219669
-0.592174 -0.0952152 -0.0248374
-0.526204 -0.20164 -0.0137562
-0.789709 -0.0107488 0.000501806
-3.58808e-017 3.80937e-020 7.79302e-020
-0.790648 -0.00934954 0.00297053
-0.495326 -0.00756472 0.00282998
-2.3786e-029 -2.99146e-029 5.89806e-029
-0.495736 -0.00594577 0.00428093
-0.450126 -0.00802397 0.00166022
-0.916398 -0.0130258 0.00272657
-0.5766 -0.00307768 0.00284864
5.17346e-030 9.47324e-032 -2.64322e-033
-0.335086 -0.00659096 0.00171138
-7.581e-017 -1.28836e-018 7.6895e-019
-1.00149e-016 -8.92745e-019 5.66189e-019
-1.08127 -0.0502296 0.00199163
-1.20834 -0.0406097 -0.00291492
-1.02972 -0.026794 0.000342112
-0.951921 -0.0223688 0.00273598
-1.20737 -0.0494248 -0.000113079
-1.10484 -0.0264377 -0.0013702
-1.15138 -0.0271818 0.0010742
1.93377e-017 -1.73979e-019 -3.09244e-019
-4.64782e-029 3.91388e-031 4.52661e-031
-1.72669e-029 4.59739e-032 9.25767e-032
0.459976 -0.0039832 -0.000911184
-2.97303e-017 3.01045e-019 4.33244e-019
1.2846e-029 -3.16951e-029 9.58254e-029
0.282757 -0.0027328 -0.00289289
-3.0685e-017 9.6275e-020 3.18128e-019
0.316227 -0.00334863 -0.00234652
0.285835 0.000189635 -0.00196658
8.12814e-032 -7.40377e-030 -5.85015e-031
-3.18651e-031 -2.33333e-029 -1.45991e-030
-5.56549e-033 -2.70594e-030 -2.02704e-031
-0.0013367 0.123034 0.00933879
0.00208376 0.130335 0.0103943
3.49997e-005 0.118899 0.00841831
-7.18749e-019 1.42445e-030 5.16016e-029
-9.55422e-020 2.65608e-017 2.32942e-018
6.63953e-019 -5.63639e-017 -5.1276e-018
0.0217355 0.749106 0.00173729
-0.0259207 0.54589 0.00484736
-0.0267156 0.662789 -0.0256582
-0.0279754 0.675419 -0.00963754
-0.00748815 0.793844 0.00555024
-0.00392354 0.890398 -0.0133299
-0.00686007 0.884037 -0.00422517
-0.0278001 0.661508 -0.00738731
-0.0270882 0.611525 -4.57588e-005
-0.0287601 0.696101 -0.0188327
0.357314 0.148043 0.0206481
-2.53278e-029 -1.38464e-030 -1.3008e-031
0.441523 0.0123023 -0.00253897
0.395246 0.0934844 0.0013463
0.239671 0.00523292 -0.000548058
0.40853 0.0279486 -0.000563827
0.19258 0.00403302 0.00734802
0.401023 0.0460197 -0.00251419
0.262166 0.00010609 -0.00324017
-1.96254e-018 -2.65421e-017 -8.42115e-019
1.06851e-031 1.22934e-030 4.74952e-032
-0.00750244 -0.118309 -0.00316662
-0.00805351 -0.115151 -0.00300009
-4.1698e-018 -5.16818e-017 -1.61028e-018
-0.0163226 -0.127933 -0.00568508
-0.0151177 -0.122157 -0.00644114
-7.34601e-018 -2.95453e-017 9.29915e-019
2.75039e-031 1.74364e-030 -3.0545e-032
-0.0309009 -0.13209 0.00349646
1.23973e-017 6.55589e-017 -1.23103e-018
2.00412e-029 -6.59106e-030 -1.24756e-031
-0.0210936 -0.130495 0.00130851
2.18887e-017 1.18769e-016 -1.86936e-018
-0.181136 -0.296354 0.00694378
1.42515e-030 2.00714e-030 -9.75447e-032
6.76482e-031 1.09693e-030 -4.87513e-032
5.0775e-031 8.91365e-031 -4.06904e-032
-0.111624 -0.169707 0.00835696
-0.102406 -0.165359 0.00746937
-0.0994543 -0.170323 0.0075863
-5.11793e-017 -7.74719e-017 5.12134e-018
-2.85044e-016 -4.53791e-016 2.94985e-017
-1.97695e-016 -3.33077e-016 2.05769e-017
-1.15409e-031 -3.22972e-030 1.17211e-031
-1.67738e-031 -8.84227e-030 3.79249e-031
-5.49925e-031 -1.58056e-029 7.70158e-031
0.00912163 0.345081 -0.00938917
-3.09228e-018 -1.23626e-016 5.45336e-018
-5.16554e-019 -1.44206e-017 6.93103e-019
0.00587631 0.198561 -0.00632907
2.74667e-018 9.40421e-017 -1.43141e-018
0.00516524 0.233071 -0.00979456
0.0079946 0.233888 -0.0108576
-5.36683e-029 -2.32475e-031 1.12471e-030
-5.63305e-029 2.66798e-031 5.77877e-031
0.463054 -0.00891515 -0.000251476
2.45491e-017 5.97781e-020 -5.92224e-019
-2.67347e-017 1.43076e-019 5.88466e-019
0.372089 -0.00219486 -0.00782181
-6.08171e-017 4.81302e-019 6.00201e-019
0.407089 -0.000929159 -0.00551547
0.359126 -0.00493688 -0.0033027
6.22639e-020 9.50711e-019 4.96113e-020
0.00736502 0.422557 0.0192292
-2.18737e-030 -6.33715e-029 -2.56012e-030
0.00852574 0.229717 0.0120273
-9.31703e-018 -7.0823e-017 -1.03817e-017
0.020293 0.41416 0.0122739
0.00789775 0.195088 0.01337
0.0149558 0.620911 0.0142148
0.0161913 0.406684 0.0171386
0.0216026 -0.0565941 -0.0362448
0.0197341 -0.00655553 -0.0273223
-0.124732 -0.209109 -0.029225
-0.130188 -0.0968148 -0.0395497
0.0190592 -0.0404461 -0.0352876
-0.0587848 -0.15738 -0.0360225
-0.0590482 -0.0982958 -0.0429453
-0.0430381 -0.0915652 -0.026618
-0.0485789 -0.0496156 -0.033835
-0.121563 -0.156824 -0.0348807
-0.0018694 0.392757 0.020141
0.00705345 0.438414 0.0204359
0.0072421 0.235324 0.0146677
0.00907556 0.624942 0.0169561
0.000692962 0.594921 -0.019634
-0.0158366 0.655557 -0.00794593
-0.0158795 0.457071 -0.0223045
-0.000820238 0.647858 -0.03033
-0.00790827 0.668918 -0.0141459
-0.00908188 0.569143 -0.0226747
0.000347245 0.622083 -0.0256594
-0.0179349 0.591374 -0.0161577
-0.00995072 0.69477 -0.0171738
-0.0118792 0.578256 -0.0272305
1.75983e-017 5.42014e-017 3.691e-018
5.54623e-017 1.37261e-018 8.5689e-020
0.390381 0.449925 -0.0180238
0.293042 0.112603 -0.023317
1.32863e-029 3.68919e-029 4.1438e-029
0.260394 0.303302 -0.0137892
0.196714 0.114508 -0.0173354
0.292847 0.172112 -0.0168774
0.225928 0.058732 -0.0122158
0.373788 0.260999 -0.0254661
8.78144e-019 2.08012e-017 1.64697e-018
0.00219903 0.229285 0.0100154
1.9756e-031 -1.43336e-029 -5.76668e-031
-0.00180578 0.171825 0.00396366
0.00252716 0.104161 0.00621248
1.51706e-018 3.0839e-017 4.0376e-018
0.00066097 0.0937877 0.00375326
5.65566e-005 0.103372 0.00566896
-0.000680858 0.205361 0.00622172
-0.00110278 0.0816543 0.00319208
6.24089e-031 3.42925e-030 -6.82726e-032
-0.0416543 -0.333016 0.00253327
5.90633e-031 1.10554e-029 -1.22569e-031
9.94852e-031 5.01107e-030 -8.93988e-032
-0.0282099 -0.195425 0.00374202
-2.91134e-017 -2.49225e-016 5.68005e-018
2.22845e-029 -4.9069e-030 1.55413e-029
-0.0181624 -0.189763 0.0025085
-0.0262223 -0.181069 0.00189674
-2.33839e-017 -2.02817e-016 3.11547e-018
0.496974 -0.000297066 -0.000130265
-1.9671e-029 2.33714e-032 -5.86205e-033
-2.04479e-029 1.50669e-032 4.15983e-033
-3.48076e-029 4.86426e-032 5.62877e-033
0.337131 0.000155938 -5.19179e-005
0.338629 -0.000150697 -0.000224955
0.336603 -0.000263629 4.91696e-005
1.3804e-029 -6.82895e-020 9.40316e-020
1.25112e-029 -7.19894e-021 -1.0996e-020
2.47501e-017 -1.54153e-020 -1.38382e-030
0.191636 0.707147 -0.0372727
-0.013212 0.827963 -0.0180794
-0.018308 0.845113 -0.0697371
0.0346817 0.738396 0.00123551
0.0871131 0.886321 -0.0390343
0.0639043 0.815839 -0.0601585
0.13196 0.827893 -0.0305148
-0.0196186 0.954275 -0.0493354
0.0499439 0.843723 -0.0103237
0.0405697 0.954352 -0.0426529
-7.35187e-029 9.79155e-032 3.47526e-032
-4.33793e-029 9.0635e-032 1.0797e-031
-5.37846e-029 4.09258e-031 -2.13322e-032
0.456397 -0.00377155 -0.000108628
1.9184e-017 9.81555e-020 -1.0556e-019
3.73435e-019 -2.99865e-022 -6.7572e-022
0.361706 5.0232e-005 -0.00137894
8.83001e-019 -9.53115e-023 3.42937e-030
0.323569 0.000402646 -0.00119046
0.367605 -0.00233839 0.000417874
7.99941e-030 4.63384e-030 -2.19385e-031
-0.382551 -0.229863 0.0111023
2.72712e-030 1.60612e-030 -9.45705e-032
-0.261554 -0.166697 0.00905788
-0.254322 -0.135335 0.00713501
5.60455e-016 3.76118e-016 -2.60647e-017
-0.43934 -0.219813 0.00914639
-0.231405 -0.150693 0.0105235
-0.244293 -0.133443 0.00724336
-0.816912 0.000686512 0.00578479
1.74479e-028 -1.99207e-031 -2.50242e-031
1.30085e-029 -8.04039e-032 -1.6158e-031
-0.815708 0.00484897 0.00280856
-0.541768 0.00243884 0.00264502
-0.488594 -0.000537463 0.00616022
-0.902412 0.00376994 0.00340132
-2.24943e-029 3.27193e-029 6.08973e-029
-0.460856 0.00408046 0.00177407
-0.492765 0.00613921 0.00339518
-3.51805e-029 3.68901e-031 2.63611e-031
-1.29253e-029 2.19549e-031 1.67747e-031
-2.0016e-029 -7.54495e-031 1.21205e-031
-4.46603e-017 1.9378e-018 4.20988e-019
-1.15829e-018 1.94417e-020 4.07782e-020
0.289899 -0.00283095 -0.00210063
-1.59174e-017 4.22972e-019 6.10126e-019
0.268029 -0.00564751 -0.00234715
0.27799 0.00315563 -0.0113897
-7.67845e-029 1.16641e-030 -2.01073e-031
0.36957 -0.00584876 0.000135316
0.309445 -0.00858238 0.00162803
0.335042 -0.00643079 0.000674956
0.511845 -0.00706861 -0.000371897
0.528453 -0.00488254 -0.00024267
0.465851 -0.00898054 -0.000705043
-1.6847e-029 -9.0281e-032 8.38713e-033
-3.16295e-029 4.531e-031 -1.66864e-032
5.25753e-017 -2.55454e-018 -2.94453e-019
4.58499e-017 -1.97683e-018 -3.10516e-019
0.271356 -0.00368271 -0.000706818
4.11689e-018 -2.04117e-019 -4.88742e-020
0.278837 -0.00436966 -0.00279372
-5.88668e-029 2.07281e-031 2.34412e-031
0.455939 0.00163863 -0.000644195
-3.91929e-029 1.20301e-031 1.02149e-031
0.280961 -0.00138905 -0.000760285
-9.49222e-017 1.03251e-019 6.77541e-019
0.359205 -0.00267536 -0.00181268
0.292317 1.20125e-005 -0.000765394
0.477892 -0.00126289 -0.000753935
0.308662 0.00077276 -0.00216001
-1.57831e-029 1.17675e-031 -1.28302e-031
-4.6429e-029 1.12729e-032 -3.05835e-031
-5.40716e-029 3.01012e-031 -2.60782e-031
3.25594e-017 -5.15346e-019 8.17836e-019
-3.50387e-017 5.96762e-019 -7.80269e-019
0.28406 -0.00372244 0.00562902
-2.28784e-017 3.23694e-019 -3.79117e-019
0.295309 -0.00286937 0.00381497
0.29515 -0.00328944 0.00281056
1.39021e-030 -8.14323e-030 3.90604e-031
-0.176875 0.118562 -0.0199088
1.88152e-030 -3.75107e-030 5.08581e-031
0.0722002 0.226864 -0.0248295
-0.0593955 0.0857005 -0.00535274
1.89913e-018 6.90914e-018 7.20995e-020
0.00774285 0.139208 -0.00640073
-0.0670644 0.0434274 -0.00485254
-0.0680741 0.186271 -0.0205451
-0.00445388 0.0782977 -0.00725968
-6.40497e-030 -3.29179e-030 -6.90079e-031
-5.1295e-029 -7.07376e-030 -6.68568e-031
-8.65877e-030 -1.81974e-029 2.69927e-031
0.202377 0.0399665 0.0312316
0.23927 0.0818179 0.0172548
0.250915 0.185574 0.0450932
2.72606e-030 5.12622e-029 -3.18201e-029
5.49097e-017 4.95098e-017 1.10645e-017
-6.86862e-017 -4.26345e-017 -1.14703e-017
-2.0609e-029 -4.78798e-032 -8.71474e-033
-1.31612e-017 -1.99391e-029 -8.14267e-020
5.08821e-017 -1.74021e-018 1.18356e-020
0.300185 -0.00173197 0.00160757
-0.09362 -0.270144 0.00269288
1.5791e-030 3.24209e-030 -4.7839e-032
-0.150821 -0.266361 -0.00448741
3.51121e-030 7.99779e-030 4.67507e-032
-0.0601313 -0.139212 0.00353489
-0.126294 -0.277006 -0.000855285
-0.060499 -0.14712 0.00219996
-0.0835888 -0.153372 0.00147512
9.95171e-018 1.96839e-017 -4.27601e-019
-0.0730264 -0.140426 -0.00022966
-0.279657 -0.324858 -0.0271915
-0.259625 -0.485091 -0.0253055
-0.116783 -0.185538 -0.0144549
-0.21483 -0.281291 -0.0327168
-0.278139 -0.416455 -0.0270094
-0.19316 -0.274511 -0.0226301
-0.217929 -0.368992 -0.0330717
-0.130654 -0.20762 -0.0194986
-0.207326 -0.366893 -0.0253714
0.454302 0.00148851 0.000102008
-9.25253e-029 -2.42459e-031 3.25635e-031
-3.80194e-029 -1.74941e-031 4.85175e-032
0.466705 0.00199823 -0.000706579
0.297948 0.00229351 -0.00080734
0.281874 0.00232176 0.000632042
0.473614 0.00246733 -0.000973229
4.05023e-029 -8.25837e-030 -1.03659e-028
0.389227 -0.0014234 -0.00150584
0.342861 -0.000372043 -0.000308671
-1.6672e-029 2.2514e-032 1.58033e-032
-4.40931e-029 1.45397e-032 -9.95032e-033
-8.22199e-029 3.1074e-032 4.14986e-032
1.26912e-029 4.67991e-029 8.24746e-029
0.28625 -0.000404476 -0.000241097
6.2422e-017 2.83067e-019 -2.73736e-020
0.313452 0.000648513 0.000478499
-2.9455e-017 -9.23071e-020 2.10063e-020
0.286094 -3.46295e-005 -0.000364627
-2.49187e-029 4.26669e-032 -2.59962e-032
-4.82856e-029 4.70934e-032 -1.01098e-031
0.493174 -0.000541777 0.000207101
-8.33569e-029 1.15572e-031 -1.98081e-031
8.15192e-017 -1.83476e-019 3.87652e-019
0.375016 -0.000793296 0.000690835
-6.43242e-017 3.45894e-019 -1.57926e-019
0.385199 -0.000633622 0.00185519
3.0502e-017 5.67231e-020 1.99803e-019
0.365516 -0.00213371 0.00062543
0.453268 0.00117734 -0.000621162
-9.23064e-029 2.38427e-032 9.64027e-032
0.520116 0.000176342 -5.02757e-005
0.333935 0.000288489 -0.000409536
0.456451 0.00197631 0.000417461
0.364691 -0.00141853 0.00106971
0.526128 0.00192723 -0.000880015
0.37122 0.000818182 -0.000327043
1.23811e-029 1.25129e-031 -8.93869e-032
-0.339447 -0.0053846 0.00443329
8.23109e-017 9.22837e-019 -3.14158e-018
-0.451718 -0.00491925 0.00451079
-0.734444 -0.0109528 0.00398193
1.12426e-030 -4.61659e-029 2.66566e-030
1.39737e-031 -8.46231e-029 4.75848e-030
-0.00880824 0.528366 -0.0300661
-3.44545e-005 0.527679 -0.0306668
-0.0109593 0.365896 -0.0224798
1.21716e-018 -6.80857e-017 4.4586e-018
-0.00710341 0.428894 -0.0257537
0.000672109 0.594396 0.00391641
0.0128537 0.323642 0.00546847
0.00447108 0.578683 -0.00232456
0.000229713 0.426381 0.00390188
0.00985549 0.496178 0.00594754
0.00370947 0.590258 0.000358498
0.000468721 0.518461 0.00477091
0.0088708 0.48257 0.00212383
0.0057243 0.406169 0.00487549
0.00224756 0.532896 0.00191152
0.00787486 0.306729 0.00911358
0.00195305 0.44152 0.0100222
0.00103362 0.33337 0.00645047
8.09923e-029 1.49394e-030 5.69215e-031
1.35923e-028 2.78117e-030 8.32119e-031
2.43533e-029 2.89241e-031 1.02822e-031
-0.614297 -0.00793641 -0.00311716
-0.579311 -0.00903372 -0.0053064
-0.579285 -0.00990601 -0.00314749
-1.32647e-016 2.66781e-019 -1.6332e-018
-1.56915e-016 -2.89116e-018 -1.19026e-018
-1.49146e-016 -3.13481e-018 -1.67637e-018
6.7554e-031 2.45813e-030 -5.68707e-032
-0.15473 -0.439825 -0.0013161
3.77957e-030 1.79228e-029 5.09657e-032
1.41772e-030 6.65795e-030 -1.2487e-031
-0.0887788 -0.321428 0.00638365
4.43063e-030 -3.90679e-030 -2.6582e-029
-3.97153e-017 -1.88508e-016 6.4932e-018