# vtk DataFile Version 2.0 
output.vtk, Created by Freefem++, via gregorio
ASCII
DATASET UNSTRUCTURED_GRID
POINTS 7451 double
-3.79965 2.23652 0.040848
-4.13429 2.05574 0.276253
-4.09122 2.24524 0.070091
-4.01836 2.27766 0.330071
-3.96697 2.14613 0.158551
-3.94543 2.24088 0.0554695
-3.90901 2.25709 0.185459
-4.11275 2.15049 0.173172
-4.07633 2.1667 0.303162
-4.05479 2.26145 0.200081
-4.81817 0.732763 -0.840268
-4.76136 0.37264 -0.736193
-5.12328 0.495929 -0.550642
-4.73872 0.559667 -0.434419
-4.78977 0.552702 -0.788231
-4.97072 0.614346 -0.695455
-4.77845 0.646215 -0.637344
-4.94232 0.434285 -0.643417
-4.75004 0.466153 -0.585306
-4.931 0.527798 -0.49253
-7.58244 -0.891248 -0.453516
-8 -0.559587 0.124298
-7.26059 -0.264226 0.250847
-7.58828 -0.999993 0.00381
-7.79122 -0.725418 -0.164609
-7.42152 -0.577737 -0.101334
-7.58536 -0.94562 -0.224853
-7.6303 -0.411906 0.187573
-7.79414 -0.77979 0.064054
-7.42444 -0.632109 0.127328
-5.46564 0.048234 0.998836
-5.51396 -0.351144 0.936321
-5.02851 -0.125769 0.598961
-5.56665 -0.148801 0.504295
-5.4898 -0.151455 0.967578
-5.24708 -0.0387675 0.798898
-5.51614 -0.0502835 0.751565
-5.27124 -0.238457 0.767641
-5.5403 -0.249972 0.720308
-5.29758 -0.137285 0.551628
-4.20269 -2.80441 0.102764
-3.63085 -2.57461 -0.287529
-4.13183 -2.29387 0.255347
-4.14432 -2.47254 -0.273935
-3.91677 -2.68951 -0.0923825
-4.16726 -2.54914 0.179055
-4.1735 -2.63848 -0.0855855
-3.88134 -2.43424 -0.016091
-3.88759 -2.52358 -0.280732
-4.13807 -2.38321 -0.009294
-6.25062 -0.085247 0.575431
-6.51584 -0.423084 -0.15939
-6.46019 0.447486 0.293263
-6.75561 -0.174737 0.413139
-6.38323 -0.254165 0.20802
-6.35541 0.181119 0.434347
-6.88822 -0.343655 0.0457285
-6.86039 0.09163 0.272055
-6.48801 0.012201 0.0669365
-4.88162 0.371746 0.655425
-4.51246 -0.112716 0.623981
-4.65723 0.09269 0.995695
-4.69704 0.129515 0.639703
-4.95507 0.122989 0.627193
-4.76942 0.232218 0.82556
-4.77049 -0.119243 0.611471
-4.58484 -0.010013 0.809838
-4.84287 -0.0165395 0.797328
-3.75099 1.20677 0.090288
-3.64118 0.745776 0.266863
-4.09568 0.790235 0.315934
-3.78936 1.07086 0.69071
-3.69609 0.976272 0.178575
-3.92333 0.998502 0.203111
-3.77017 1.13882 0.390499
-3.86843 0.768006 0.291399
-3.71527 0.908319 0.478787
-3.94252 0.930549 0.503322
-2.18572 0.40145 0.915881
-1.75478 0.245881 0.526965
-1.94554 -0.013967 0.999902
-1.76886 0.356252 0.93439
-1.97025 0.323665 0.721423
-2.06563 0.193741 0.957891
-1.97729 0.378851 0.925135
-1.85016 0.115957 0.763433
-1.76182 0.301067 0.730678
-1.8572 0.171143 0.967146
-5.06116 0.824959 0.710182
-4.88551 0.773989 0.80113
-4.92155 0.772883 0.437198
-5.01596 0.602336 0.857802
-4.97333 0.799474 0.755656
-4.99135 0.798921 0.57369
-5.03856 0.713647 0.783992
-4.90353 0.773436 0.619164
-4.95074 0.688163 0.829466
-4.96876 0.687609 0.6475
-2.34262 2.51752 0.051733
-2.4672 2.85727 -0.311185
-2.29554 2.81673 0.086134
-2.65762 2.74748 0.16058
-2.40491 2.6874 -0.129726
-2.31908 2.66712 0.0689335
-2.50012 2.6325 0.106157
-2.38137 2.837 -0.112526
-2.56241 2.80238 -0.0753025
-2.47658 2.7821 0.123357
-3.50303 -3.76846 -0.636668
-3.49422 -3.29308 -1.15018
-3.31427 -3.71149 -1.25136
-2.90724 -3.34218 -0.858121
-3.49863 -3.53077 -0.893424
-3.40865 -3.73997 -0.944014
-3.20514 -3.55532 -0.747394
-3.40425 -3.50228 -1.20077
-3.20073 -3.31763 -1.00415
-3.11076 -3.52683 -1.05474
-4.0054 2.49156 -0.125899
-3.5956 2.50054 -0.194198
-3.83412 2.54803 0.0159
-3.8005 2.49605 -0.160049
-3.90253 2.36404 -0.0425255
-3.91976 2.5198 -0.0549995
-3.69763 2.36853 -0.076675
-3.71486 2.52428 -0.089149
-3.81689 2.39228 0.028374
-3.73452 -3.68531 -1.05781
-3.52439 -3.6984 -1.15459
-3.61437 -3.4892 -1.104
-3.61877 -3.72688 -0.84724
-6.37864 0.944563 0.328331
-6.25891 0.813305 0.581838
-6.65332 0.772267 0.635298
-6.31878 0.878934 0.455085
-6.41941 0.696025 0.310797
-6.51598 0.858415 0.481815
-6.35955 0.630395 0.43755
-6.45612 0.792786 0.608568
-6.55675 0.609877 0.46428
1.62066 -0.841518 -0.540229
1.89324 0.238579 -0.195511
2.01627 -0.690819 -0.723027
2.25185 -0.211859 0.261412
1.75695 -0.30147 -0.36787
1.81846 -0.766169 -0.631628
1.93625 -0.526689 -0.139408
1.95475 -0.22612 -0.459269
2.07254 0.01336 0.0329505
2.13406 -0.451339 -0.230807
-2.56949 2.06853 0.305158
-2.91403 1.60744 0.564909
-3.02709 2.08175 0.021586
-2.87501 2.07662 0.630995
-2.74176 1.83799 0.435033
-2.79829 2.07514 0.163372
-2.72225 2.07258 0.468077
-2.97056 1.8446 0.293247
-2.89452 1.84203 0.597952
-2.95105 2.07919 0.32629
-5.39985 0.358755 0.933432
-5.34934 0.453264 0.543553
-5.56264 0.558471 0.829524
-5.70805 0.297641 0.954678
-5.37459 0.40601 0.738492
-5.48124 0.458613 0.881478
-5.55395 0.328198 0.944055
-5.45599 0.505868 0.686538
-5.52869 0.375452 0.749116
-5.63535 0.428056 0.892101
-4.17913 0.323834 -0.696515
-4.36183 0.516245 -0.417662
-4.60784 0.019305 -0.528365
-4.46586 0.364911 -0.72315
-4.27048 0.42004 -0.557088
-4.39349 0.17157 -0.61244
-4.3225 0.344372 -0.709832
-4.48483 0.267775 -0.473013
-4.41384 0.440578 -0.570406
-4.53685 0.192108 -0.625757
-5.9377 0.438799 -0.558905
-5.87927 0.529091 -0.848565
-6.25926 0.555743 -0.831354
-6.07929 0.245277 -0.969453
-5.90849 0.483945 -0.703735
-6.09848 0.497271 -0.695129
-6.00849 0.342038 -0.764179
-6.06927 0.542417 -0.839959
-5.97928 0.387184 -0.909009
-6.16928 0.40051 -0.900404
-3.64743 2.72944 0.180305
-3.74077 2.63873 0.0981025
-3.72354 2.48298 0.110576
-3.62151 2.61499 -0.0069465
-3.98168 0.388062 0.141859
-3.76543 0.320245 0.603448
-3.81143 0.566919 0.204361
-3.70331 0.533011 0.435156
-4.03868 0.589149 0.228897
-3.87356 0.354154 0.372653
-3.93055 0.55524 0.459691
-6.17342 0.027823 -0.593282
-6.59748 0.255766 -0.966739
-6.35964 0.547779 -0.240473
-6.21634 0.291783 -0.712318
-6.42837 0.405755 -0.899047
-6.30945 0.551761 -0.535914
-6.38545 0.141794 -0.78001
-6.26653 0.287801 -0.416878
-6.47856 0.401772 -0.603606
-5.98474 0.742767 -0.66955
-5.96122 0.590783 -0.614227
-6.122 0.649255 -0.750452
-5.93201 0.635929 -0.759057
-5.86659 0.345457 -0.129882
-5.96054 -0.099592 -0.035866
-6.02 0.18664 -0.361582
-6.11312 0.446618 -0.185177
-5.91357 0.122933 -0.082874
-6.06698 -0.0358845 -0.314574
-6.16009 0.224094 -0.13817
-1.10421 0.363269 -0.931684
-0.773878 0.737644 -0.67519
-0.520452 0.269543 -0.962988
-0.384634 0.008888 -0.353445
-0.939043 0.550457 -0.803437
-0.812329 0.316406 -0.947336
-0.74442 0.186079 -0.642564
-0.647165 0.503594 -0.819089
-0.579256 0.373266 -0.514317
-0.452543 0.139215 -0.658216
-2.85287 -3.00249 -1.21636
-3.23054 -2.92385 -1.196
-3.06719 -3.3306 -1.25351
-2.88006 -3.17233 -1.03724
-3.06889 -3.13301 -1.02706
-2.98722 -3.33639 -1.05581
-3.0417 -2.96317 -1.20618
-2.96003 -3.16654 -1.23493
-3.14886 -3.12722 -1.22475
-3.38618 -2.05134 -0.098565
-2.37808 -2.56123 -0.134541
-2.49252 -2.47812 0.422472
-2.41131 -1.89586 0.044632
-2.88213 -2.30628 -0.116553
-2.93935 -2.26473 0.161954
-2.89875 -1.9736 -0.0269665
-2.4353 -2.51967 0.143966
-2.39469 -2.22855 -0.0449545
-2.45192 -2.18699 0.233552
-1.85713 -0.413967 0.42138
-1.65927 -0.390905 0.920431
-1.2503 -0.077569 0.384148
-1.80595 -0.084043 0.474172
-1.70702 -0.072512 0.723698
-1.50254 0.084156 0.455557
-1.7582 -0.402436 0.670905
-1.55371 -0.245768 0.402764
-1.45478 -0.234237 0.652289
-2.09043 2.55218 0.167395
-2.0659 2.66009 -0.048555
-2.19298 2.68445 0.126765
-2.18072 2.73841 0.0187895
-2.07816 2.60614 0.05942
-2.21652 2.53485 0.109564
-2.20426 2.58881 0.001589
-4.01665 2.44382 0.136481
-3.97233 2.67361 0.084512
-3.92539 2.49592 0.0761905
-3.99449 2.55872 0.110496
-4.01103 2.46769 0.005291
-3.90323 2.61082 0.050206
-3.98887 2.58259 -0.0206935
-3.92754 1.80484 -0.220103
-4.28096 1.83407 -0.225431
-4.13592 1.88983 -0.461486
-4.146 2.03152 -0.278406
-4.10425 1.81945 -0.222767
-4.03173 1.84734 -0.340795
-4.03677 1.91818 -0.249254
-4.20844 1.86195 -0.343458
-4.21348 1.9328 -0.251918
-4.14096 1.96068 -0.369946
-4.04038 -5 0.949212
-3.62468 -5 1.26221
-3.84559 -4.54287 1.07336
-3.71487 -5 0.728948
-3.83253 -5 1.10571
-3.94299 -4.77144 1.01129
-3.87763 -5 0.83908
-3.73513 -4.77144 1.16779
-3.66977 -5 0.99558
-3.78023 -4.77144 0.901156
-1.37334 0.812082 -0.583544
-0.975724 0.961208 -0.275823
-1.19336 -0.166381 -0.273753
-1.17453 0.886645 -0.429683
-1.07361 0.774863 -0.629367
-1.28335 0.32285 -0.428648
-0.874801 0.849426 -0.475506
-1.08454 0.397413 -0.274788
-0.983618 0.285631 -0.474471
-3.83515 -1.82017 -0.741539
-3.34976 -1.58414 -0.592596
-3.50394 -2.07825 -1.02313
-3.59245 -1.70215 -0.667067
-3.66955 -1.94921 -0.882335
-3.61067 -1.93575 -0.420052
-3.42685 -1.83119 -0.807863
-3.36797 -1.81774 -0.345581
-3.44506 -2.06479 -0.560848
-2.72946 0.769161 0.094533
-2.75119 0.681139 -0.326037
-2.98528 1.02631 -0.281501
-3.08113 0.734324 -0.34324
-2.74032 0.72515 -0.115752
-2.85737 0.897737 -0.093484
-2.90529 0.751742 -0.124353
-2.86823 0.853726 -0.303769
-2.91616 0.707731 -0.334639
-3.03321 0.880319 -0.31237
-2.94023 -2.47675 -0.674772
-3.14499 -2.03044 -0.633684
-3.22209 -2.2775 -0.848951
-3.16321 -2.26404 -0.386669
-3.03914 -4.25341 0.579285
-2.64287 -3.80807 0.20828
-2.47531 -4.18593 0.714333
-2.97264 -3.41482 0.618231
-2.84101 -4.03074 0.393783
-2.75723 -4.21967 0.646809
-3.00589 -3.83412 0.598758
-2.55909 -3.997 0.461307
-2.80776 -3.61144 0.413255
-2.72397 -3.80037 0.666282
-2.39684 -0.595487 -0.803365
-1.98884 -0.54749 -0.836812
-2.24172 -0.466498 -0.098067
-2.21295 -0.01831 -0.514797
-2.19284 -0.571489 -0.820088
-2.31928 -0.530992 -0.450716
-2.3049 -0.306899 -0.659081
-2.11528 -0.506994 -0.46744
-2.1009 -0.2829 -0.675804
-2.22734 -0.242404 -0.306432
-3.36239 -4.55484 -1.31864
-3.11171 -4.25429 -0.873787
-2.86199 -4.55394 -1.36046
-2.79118 -5 -0.96439
-3.23705 -4.40456 -1.09621
-3.11219 -4.55439 -1.33955
-3.07678 -4.77742 -1.14151
-2.98685 -4.40411 -1.11712
-2.95144 -4.62714 -0.919088
-2.82658 -4.77697 -1.16243
-3.88203 2.65205 -0.416886
-3.48121 2.84727 -0.340672
-3.82273 3 -0.474998
-3.72541 2.76868 -0.627028
-3.68162 2.74966 -0.378779
-3.85238 2.82603 -0.445942
-3.80372 2.71037 -0.521957
-3.65197 2.92364 -0.407835
-3.60331 2.80798 -0.48385
-3.77407 2.88434 -0.551013
[...]
POINT_DATA 7451
 
FIELD FieldData 2
velocity 3 7451 double
-1.55275 -4.49965 0.0445372
1.89234e-029 4.41182e-029 -1.92809e-030
6.17711e-030 1.71094e-029 -2.9375e-031
1.62831e-029 4.42461e-029 -1.81085e-030
-1.09803 -2.71288 0.094538
-1.0073 -2.78378 0.048728
-1.08144 -3.11315 0.113417
-2.62771e-017 -6.41991e-017 2.39246e-018
7.71276e-017 1.89674e-016 -1.153e-017
4.98246e-030 -1.28697e-029 -1.69379e-030
2.9038e-029 1.71985e-029 1.08024e-030
-1.2237 -0.728925 -0.047091
-1.85292 -0.65735 -0.0337646
-2.15414 -1.38245 -0.0683373
-0.757158 -0.465512 -0.0237104
-1.00497 -0.462968 -0.0240153
-1.37862 -0.884852 -0.0639911
-1.59721 -0.728563 -0.0334863
-1.77312 -1.11817 -0.0562262
-2.02525 -0.995279 -0.05316
2.60275e-028 -2.77672e-031 3.49747e-031
-2.29463 0.0171193 -0.00203061
-2.76822 -0.0021864 0.00123672
1.5407e-028 -4.35584e-031 2.25412e-031
-1.5615 0.00245515 -0.00522922
-2.30035 -0.00499195 -0.0100286
-3.92755e-016 4.96838e-020 -1.76744e-018
-2.632 0.00106527 -0.000656349
-1.38914 0.0158753 -0.00610704
-2.08074 0.00427787 -0.00283979
9.10362e-029 1.33092e-029 1.97241e-031
6.07169e-029 5.73556e-030 1.48613e-030
-1.8209 -0.424746 -0.0738016
-2.32891 -0.194911 -0.0212898
-4.50451e-016 -3.30907e-017 -8.84699e-018
-1.21354 -0.219857 -0.0199103
-1.51085 -0.137287 -0.018651
-1.16484 -0.141543 -0.0408616
-1.45512 -0.0963316 -0.0281948
-2.10628 -0.293461 -0.0396316
1.16772e-029 1.55555e-028 -1.51353e-030
-0.0767229 -1.19547 -0.0451786
1.18495e-029 1.82899e-028 -1.54377e-030
2.87399e-030 3.40936e-029 1.12048e-030
-0.0796242 -0.871132 -0.00787463
1.53004e-016 1.66022e-015 -9.34197e-018
1.50532e-017 1.45711e-016 2.09296e-018
-0.0811679 -0.951835 -0.00920105
-0.0814789 -0.914706 -0.0317804
1.99861e-016 2.04035e-015 2.95761e-017
-2.23907 -0.0487443 -0.0114152
-2.57506 -0.0253859 0.000602059
-2.40959 -0.0376366 -0.00613355
-2.65112 -0.0167789 -0.00713696
-2.88296 -0.0472034 -0.0105267
-2.59291 -0.0502035 -0.0100206
-2.83005 -0.00780372 -0.00307452
-2.96357 -0.0156154 -0.00675169
-3.13735 -0.0455642 -0.00569604
-1.6492 -0.878807 0.0721009
-1.22466 -0.842965 -0.173464
4.90924e-029 3.33529e-029 9.61711e-031
-1.6095 -0.954412 -0.0361643
-1.84465 -0.682797 -0.00756381
-0.904688 -0.676617 0.0400787
-1.57119 -0.605176 -0.116031
-0.880037 -0.732884 -0.0767249
-1.07644 -0.492408 -0.048422
-2.41607 -4.948 -0.0167921
-1.17467 -4.3855 -0.0998132
-2.15543 -3.27809 0.0642226
-1.55937 -3.91822 0.0555637
-1.87737 -4.73309 -0.0870743
-2.32167 -4.12955 0.0400635
-2.23639 -4.6339 0.0282232
-1.7718 -3.86032 -0.0174097
-1.63474 -4.41938 -0.112292
-1.91394 -3.72447 0.087392
-5.82718e-029 1.95357e-029 -5.08089e-030
0.939614 -0.119065 0.031433
-5.46823e-029 1.69202e-029 5.04496e-031
-1.20499e-029 1.39398e-030 -5.8768e-031
0.582628 -0.123989 0.0436724
2.21119e-016 -7.74337e-017 1.29871e-017
1.00422e-017 -1.9225e-018 7.32295e-019
0.578226 -0.110667 0.0237773
0.550647 -0.0625601 0.0204256
-1.91841e-016 3.30942e-017 -8.2918e-018
8.80851e-017 4.95611e-017 -9.48028e-018
9.13513e-030 6.04645e-030 -8.56861e-031
-1.73483 -0.968202 0.111555
9.342e-030 5.50887e-030 -7.54872e-031
4.4819e-017 2.88816e-017 -5.56706e-018
-0.995737 -0.558276 0.088378
5.24165e-016 3.05236e-016 -3.49083e-017
-1.01555 -0.662945 0.109483
5.23769e-016 3.82636e-016 -5.79116e-017
-1.05199 -0.613155 0.0911142
-0.452365 -3.18881 -0.0418936
-0.278898 -4.15283 -0.106593
-0.170523 -3.18464 -0.00238928
-0.609775 -5.52692 -0.0301443
-0.378371 -3.84794 -0.0360493
-0.312615 -3.19163 -0.0246731
-0.565819 -4.58224 -0.0400142
-0.243058 -3.89042 -0.04546
-0.470375 -5.12942 -0.0418687
-0.402206 -4.66082 -0.00925626
-0.0442288 -1.12525 -0.0628115
3.17183e-030 1.16418e-028 8.37424e-030
1.78832e-030 1.06173e-028 7.94993e-030
0.0114844 -1.33192 -0.0960868
-0.0340687 -0.963 -0.0760132
-0.031144 -1.00375 -0.0773249
-0.023926 -1.32056 -0.086555
-6.17745e-031 -6.20103e-029 -2.04303e-030
-0.0176433 -1.02791 -0.079698
-0.0122074 -0.957227 -0.0770171
1.37665e-029 5.31393e-029 -8.40081e-032
-1.21554 -5.41558 -0.0194212
-0.698894 -3.29533 -0.00330478
-0.873147 -3.64056 0.0131904
-0.882048 -2.88523 -0.000129074
-0.432494 -1.8152 -0.0100639
-1.43816 -5.06658 -0.000879746
-1.05807 -4.71491 -0.0031281
-1.11602 -3.93098 0.0195672
1.31616e-030 3.03125e-029 2.1895e-030
2.33839e-017 6.40623e-016 5.48883e-017
-2.1746e-017 -5.44823e-016 -4.75987e-017
-0.0396595 -0.892755 -0.0683674
2.93505e-029 5.4264e-031 3.93406e-032
3.87423e-029 7.13291e-031 2.8239e-032
5.04965e-029 6.78728e-031 2.30142e-031
2.14688e-016 5.10615e-018 3.05901e-019
-1.51064 -0.0396828 -0.00272131
-2.21383e-029 -5.16145e-030 -2.46802e-030
-1.48408 -0.0217072 -0.00289587
-5.58618e-017 2.94146e-018 -1.41937e-019
-1.50172 -0.018174 -0.00469621
-3.56489e-028 1.12529e-030 -5.54375e-032
1.12006 -0.00179696 0.00079466
-1.34064e-028 4.06609e-031 -2.80614e-031
1.09264 -0.00316562 0.00226975
1.0124 -0.00646734 0.00133421
-1.70624e-016 8.95749e-019 -5.03951e-019
0.933142 -0.00344118 0.00182508
0.975061 -0.00179335 0.00326367
1.2201 -0.00373249 0.00290993
0.983805 -0.00533718 0.00335803
-1.03068 -3.92792 -0.180223
-1.42793 -4.07003 -0.431809
-1.80152 -5.94435 -0.0612599
-1.14381 -4.69263 -0.220886
-1.33111 -4.27099 -0.309574
-1.53222 -5.39685 -0.151484
-1.16482 -4.52586 -0.24214
-1.89965 -5.68288 -0.23237
-1.3333 -4.4223 -0.32686
-1.66861 -5.78086 -0.18448
9.14499e-030 1.62231e-030 -3.55493e-031
-1.9244 -0.443177 0.0576428
1.96046e-029 1.94779e-030 -5.64806e-031
8.31319e-029 7.13361e-030 -7.73465e-031
-1.13101 -0.196166 0.0516694
-3.05277e-016 -3.37519e-017 1.62483e-017
4.20303e-016 3.14127e-017 -1.82906e-017
-1.09945 -0.165644 0.0446551
-1.13526 -0.122886 0.0339018
-6.91037e-017 -3.71548e-018 3.42713e-018
-0.925648 -1.80696 -0.068669
-1.95468 -2.1131 -0.0693811
-1.63528 -0.98824 0.0293243
-1.15669 -1.19807 -0.0660359
-1.48219 -2.03219 -0.0528606
-1.30569 -1.43265 -0.0116211
-1.07185 -1.48853 -0.0675564
-1.79435 -1.51831 -0.0264986
-1.63284 -1.7413 -0.0688563
-1.47572 -1.19659 -0.0293421
-1.77355 -0.0601353 -0.00464468
9.80621e-030 2.01666e-031 2.65992e-032
8.329e-029 1.50221e-030 -2.96164e-031
3.91755e-029 8.61595e-031 -2.29291e-032
-1.00792 -0.0182013 -0.000362529
-0.993576 -0.0263247 0.00681444
-1.0805 -0.0221827 0.00352174
-7.42556e-016 -9.63121e-018 5.84483e-018
-3.55699e-016 -3.05375e-018 2.4343e-018
-3.23741e-029 -3.4593e-030 6.29269e-030
-0.745331 -4.94433 0.0436813
-0.749491 -4.29386 0.0204233
-1.11452 -4.77149 0.0314616
-1.02441 -5.44099 0.0036437
-1.38575 -2.80607 -0.0619082
-0.370851 -2.84796 0.12474
-1.27549 -3.55881 -0.0701714
-0.766999 -3.63582 -0.0271523
-1.81783 -3.13101 -0.0143405
-0.964422 -2.87959 -0.0239274
-1.36033 -3.19708 -0.0070412
-2.20231 -0.0488429 0.00179825
-1.09329e-016 1.44639e-019 2.14256e-019
-2.22186 -0.0325793 0.00373732
-1.46223 -0.0334582 0.00764116
-7.84169e-029 -4.6666e-030 7.22075e-030
-1.47733 -0.0224568 0.0121631
-1.33413 -0.0294937 0.00589615
-2.50563 -0.0510458 0.00519416
-1.68038 -0.014677 0.00826015
1.57884e-029 4.21528e-031 9.94014e-032
-1.02277 -0.0280067 0.000765473
-2.39633e-016 -5.14747e-018 2.10073e-018
-3.1835e-016 -4.49185e-018 7.58442e-019
-2.88173 -0.166842 -0.00450832
-3.04963 -0.131239 -0.0072798
-2.751 -0.100203 -0.00564699
-2.59719 -0.0731476 -0.000114814
-3.09775 -0.162526 -0.00377654
-2.89806 -0.0973388 -0.00422031
-2.99642 -0.0874564 -0.000126749
5.43636e-017 -5.65069e-019 -2.15884e-019
-1.21823e-028 7.57356e-031 2.94476e-031
-4.64195e-029 -2.72355e-031 1.40035e-031
1.11008 -4.4508e-006 -4.91552e-006
-8.21072e-017 8.6343e-019 2.41594e-019
3.50528e-029 -4.72258e-030 1.46157e-029
0.753554 -0.00102123 -0.00469259
-8.56797e-017 -4.22139e-019 4.9182e-019
0.831537 -0.00311423 -0.00125378
0.762421 0.0082307 -0.00471231
-4.40417e-031 5.00201e-029 4.3567e-030
1.46894e-030 1.2603e-028 9.70764e-030
4.66334e-032 2.1934e-029 1.82091e-030
0.00745987 -0.963572 -0.0881795
-0.0080969 -0.993495 -0.0846589
-0.000564695 -0.94836 -0.077901
2.83295e-018 -5.33443e-029 -1.60222e-030
2.5601e-019 -2.76661e-016 -2.62095e-017
-3.19829e-018 5.6661e-016 5.08555e-017
-0.0184693 -1.2936 -0.0219324
0.0764301 -1.1957 -0.0233399
0.0734645 -1.20363 0.0477692
0.0986067 -1.22585 0.00194328
0.0415821 -1.30073 -0.0195685
0.035631 -1.32353 0.0140549
0.0620315 -1.341 -0.00887201
0.0739013 -1.25188 0.00947123
0.0824225 -1.23006 -0.0140775
0.0857047 -1.282 0.029877
0.736265 -0.214397 -0.0768204
-6.67247e-029 6.72276e-030 1.74758e-030
1.073 -0.0509624 -0.00726329
0.996007 -0.190352 -0.00775163
0.642613 -0.0770368 -0.000970866
1.03799 -0.0877587 0.000923755
0.510741 -0.0549605 -0.045
0.97368 -0.0900198 -0.0225561
0.704972 -0.0377802 -0.0147964
-3.15763e-017 -4.03787e-016 3.86107e-019
1.59347e-030 1.83403e-029 2.11442e-031
-0.113734 -1.70541 0.000272116
-0.120285 -1.72153 -0.00466734
-6.60617e-017 -8.14732e-016 -1.42135e-018
-0.244454 -1.84541 -0.0225775
-0.223598 -1.82291 -0.0425588
-1.11051e-016 -4.43829e-016 3.58083e-018
3.9953e-030 2.50445e-029 -1.16923e-031
-0.460033 -1.94383 0.0103063
1.91374e-016 9.9281e-016 3.73441e-018
6.02564e-030 -1.70163e-029 2.45014e-032
-0.32035 -1.93945 -0.0203678
3.58289e-016 1.87137e-015 2.55612e-017
-2.07105 -4.00638 -0.0699601
1.65371e-029 2.63331e-029 3.42584e-031
9.03774e-030 1.71329e-029 5.97902e-031
6.90034e-030 1.33596e-029 2.80916e-031
-1.38503 -2.33272 -0.045891
-1.36941 -2.5354 -0.0949035
-1.34347 -2.54204 -0.0658893
-7.12548e-016 -1.18761e-015 -4.38637e-017
-4.00439e-015 -6.79213e-015 -1.81656e-016
-2.97957e-015 -5.46097e-015 -2.23488e-016
3.78102e-031 1.00869e-029 -4.23348e-031
5.74541e-031 2.79236e-029 -1.5158e-030
1.85874e-030 4.73444e-029 -2.8529e-030
-0.0281299 -0.728179 0.0303024
1.36815e-017 4.90705e-016 -2.45304e-017
2.12038e-018 5.55551e-017 -3.05349e-018
-0.0224947 -0.61493 0.0264236
-1.1488e-017 -3.71779e-016 6.16683e-018
-0.0202437 -0.777571 0.0401379
-0.0297868 -0.750454 0.043762
-1.468e-028 7.06997e-030 -1.37172e-031
-1.44547e-028 1.31864e-030 4.31801e-031
1.11276 -0.032346 0.00354418
6.61868e-017 -9.999e-019 -2.18097e-019
-7.33242e-017 1.68063e-018 1.15686e-019
0.987263 -0.0324695 4.52957e-005
-1.6463e-016 -9.34072e-020 3.95593e-019
1.04563 -0.00600967 -0.00313859
0.939588 -0.0151156 -0.000435442
-1.77218e-019 -4.83376e-018 -2.17774e-019
0.033028 -1.63839 -0.107265
5.27111e-030 2.46279e-028 1.42312e-029
-0.00331844 -1.10986 -0.0679579
2.91652e-017 6.23663e-016 4.59265e-017
-0.0469097 -1.47696 -0.0574541
-0.0127126 -1.10646 -0.0783653
0.00268017 -1.64221 -0.0635276
-0.0425124 -1.53563 -0.0797835
1.96153 -3.61778 0.182837
1.68068 -2.48224 -0.424321
-0.4343 -5.38839 0.270982
0.717565 -4.56798 -0.179367
1.86724 -3.41354 -0.130256
0.951941 -5.10171 -0.102825
1.48053 -4.59644 -0.134526
0.960133 -3.87912 -0.126824
1.43182 -3.79937 -0.325382
0.308051 -5.07446 0.0445525
0.0183437 -1.56594 -0.100538
0.00147634 -1.69544 -0.095025
-0.0271571 -1.38134 -0.0975389
-0.00638527 -1.49573 -0.0572155
0.000343412 -0.734798 0.0397835
0.032494 -1.02116 0.0132427
0.0414891 -0.886132 0.0596243
0.000998149 -0.883064 0.0557296
0.0192782 -0.975187 0.0220151
0.0210175 -0.85725 0.0521569
-0.00128052 -0.815009 0.0511045
0.0428802 -1.01421 0.0288039
0.0212644 -1.04904 0.0251225
0.0304931 -0.919655 0.0613942
3.41775e-017 -2.81733e-016 -5.83623e-018
1.43465e-016 -2.35063e-017 7.95272e-018
0.699662 -0.727955 0.0167202
1.00388 -0.526132 -0.0186947
2.5745e-029 -2.15618e-029 1.1038e-029
0.429208 -0.773328 0.0357716
0.525709 -0.469362 0.0449702
0.466098 -0.406162 0.0668196
0.535749 -0.28212 0.0464893
0.950668 -0.666988 0.0105372
-4.06016e-018 -2.55752e-016 -1.96818e-017
-0.00731896 -1.2054 -0.0718656
-1.1332e-030 9.77957e-029 5.61588e-030
0.00877336 -1.07023 -0.0380015
-0.0109724 -0.877254 -0.0622858
-6.76843e-018 -4.59315e-016 -5.15227e-017
-0.00261779 -0.837369 -0.0442292
0.00259965 -0.891266 -0.0629739
0.00464097 -1.15395 -0.0533133
0.00738649 -0.752973 -0.0401707
9.80136e-030 5.99068e-029 2.35602e-031
-0.597712 -5.49476 -0.0483453
8.90285e-030 1.97814e-028 4.03465e-031
1.5838e-029 9.47944e-029 1.01634e-030
-0.45916 -3.61688 -0.0166926
-5.13709e-016 -5.14364e-015 -2.17276e-017
6.11907e-030 -4.70539e-029 8.42128e-030
-0.290443 -3.64372 -0.0265447
-0.440241 -3.63655 -0.0684682
-4.28645e-016 -4.49946e-015 -7.03179e-017
1.14317 -0.00135657 0.000425072
-5.22688e-029 4.37254e-032 -6.21667e-033
-5.41798e-029 1.06692e-031 8.09784e-032
-9.13746e-029 1.48004e-031 8.36308e-032
0.886054 0.000827889 -0.000148648
0.887665 -0.000990368 -0.00174846
0.881371 0.000401392 -0.00127484
3.7478e-029 -2.29065e-019 9.3687e-019
3.45866e-029 -3.36235e-019 2.88372e-019
6.94491e-017 5.17977e-021 -1.05459e-031
0.247997 -0.958291 -0.0276296
0.425955 -1.55855 -0.0672651
0.346261 -1.36894 0.103528
0.114375 -1.36128 -0.0325687
0.409291 -1.44638 -0.0128598
0.337977 -1.18313 0.0434777
0.144988 -1.33829 -0.00710793
0.425659 -1.63581 0.0103928
0.249742 -1.44178 -0.0483012
0.24434 -1.4982 0.0112797
-1.89097e-028 1.82358e-031 -4.01439e-032
-1.14923e-028 4.91267e-032 3.29228e-031
-1.3992e-028 4.11197e-031 6.43923e-032
1.10732 -0.00241516 -0.00143048
5.24134e-017 1.30636e-019 -2.53772e-019
1.0041e-018 -2.28495e-021 -4.16409e-021
0.937905 -0.00201269 -0.00348008
2.4299e-018 5.46258e-021 2.79501e-031
0.864555 0.00391763 -0.00328152
0.963152 -0.00226107 -0.00282295
3.61104e-029 2.78479e-029 -3.38933e-030
-1.64492 -1.65335 0.242894
1.18164e-029 9.48973e-030 -1.66381e-030
-1.26028 -1.06471 0.167913
-1.06761 -0.67427 0.105261
2.80587e-015 2.2362e-015 -4.28581e-016
-1.68526 -1.26911 0.175167
-1.07253 -0.965679 0.184233
-1.0069 -0.695334 0.115096
-2.27073 -0.00639037 0.012179
4.81276e-028 5.00151e-032 -1.89037e-031
3.79792e-029 -3.75254e-032 -4.12669e-031
-2.25838 0.00603068 0.00206157
-1.5631 -0.00520061 0.00251785
-1.44324 -0.0100035 0.0153179
-2.4696 0.00322287 0.0028258
-6.54966e-029 4.91911e-031 1.24327e-030
-1.33323 0.00292373 -0.00285462
-1.44054 0.0107649 0.00520762
-9.43143e-029 9.21491e-031 4.47252e-031
-3.52531e-029 9.78311e-031 4.7513e-031
-5.25798e-029 2.52879e-030 1.6391e-030
-1.28005e-016 6.47584e-019 1.9382e-018
-3.33133e-018 3.14139e-020 4.67097e-020
0.777269 -0.0112466 -0.00571907
-4.63304e-017 8.4621e-019 1.01911e-018
0.725619 -0.0191236 -0.0125452
0.757597 -0.0236491 -0.011911
-1.9807e-028 1.05051e-030 6.69877e-032
0.957504 -0.0033824 -0.0022904
0.815676 -0.005331 0.00052412
0.874169 -0.0066788 -0.0011609
1.22162 -0.0172006 -0.00113217
1.25161 -0.00522192 0.00150174
1.1249 -0.0118714 -0.000142387
-4.54289e-029 2.95102e-030 -7.3871e-032
-8.38526e-029 1.3314e-030 2.16078e-031
1.50678e-016 -3.87423e-018 -1.98907e-018
1.29481e-016 -3.27197e-018 -1.32808e-018
0.724039 -0.0298367 -0.00314084
1.17647e-017 -1.61543e-019 -2.39191e-019
0.742778 -0.0191536 -0.0100331
-1.52772e-028 -7.09929e-031 2.09642e-031
1.10542 0.00613611 -0.000328719
-1.03294e-028 -5.23816e-031 -2.21394e-032
0.744159 0.000612303 0.000533936
-2.60836e-016 -2.78427e-018 8.28808e-019
0.93412 0.00400676 -0.000995178
0.777854 0.00593428 0.000280651
1.15903 0.00527182 0.000969182
0.817822 0.0108997 -0.00407065
-4.26669e-029 2.69639e-031 -3.74429e-031
-1.23103e-028 1.07607e-031 -8.79413e-031
-1.4352e-028 9.52472e-031 -6.6909e-031
9.27792e-017 -1.51061e-018 2.56569e-018
-1.00122e-016 1.82102e-018 -2.31779e-018
0.760344 -0.00922987 0.0167543
-6.50198e-017 1.11546e-018 -1.16995e-018
0.786874 -0.00864931 0.012059
0.789203 -0.0105997 0.00760499
-2.71991e-029 6.23556e-029 4.8985e-030
0.583632 -1.75593 -0.163765
-3.33133e-029 5.25096e-029 1.18491e-029
0.970904 -1.36597 -0.167513
0.455182 -0.945874 -0.0653709
-4.20158e-017 -7.83591e-017 1.15728e-017
0.537385 -1.07486 -0.0926863
0.445306 -0.724248 -0.147545
0.83936 -1.72335 -0.23609
0.673972 -0.910062 -0.191013
-1.20503e-029 6.06883e-030 2.71854e-030
-1.15255e-028 1.08591e-029 2.31713e-030
-8.85345e-030 3.17228e-029 2.38111e-030
0.433284 -0.0978147 -0.0927352
0.423173 -0.0973229 -0.0565863
0.346066 -0.243951 -0.117899
6.12295e-030 7.80159e-030 -7.14316e-030
5.57297e-017 -7.62622e-017 -3.81883e-017
-8.84366e-017 5.16093e-017 3.0002e-017
-5.54077e-029 2.66755e-030 -5.62067e-031
-3.68652e-017 -5.22025e-030 -1.67271e-019
1.4221e-016 -3.57328e-018 -3.45691e-019
0.795016 -0.031487 0.00396742
-1.39804 -5.07704 -0.073303
2.45112e-029 7.02823e-029 1.35111e-030
-1.88676 -5.03285 -0.0100563
5.44215e-029 1.7757e-028 8.89031e-031
-1.01572 -3.11278 -0.0672167
-1.74501 -5.16269 -0.0631926
-1.01078 -3.48176 -0.041819
-1.28003 -3.41172 -0.0811735
1.80877e-016 5.13026e-016 1.35701e-017
-1.13929 -3.29093 -0.0345844
-1.79915 -5.35116 0.157939
-2.27859 -5.89364 -0.0337905
-1.39249 -3.88264 0.375282
-1.22965 -5.57211 0.265713
-2.11981 -5.84768 0.0677978
-1.6245 -5.18834 0.336336
-1.76282 -5.94777 0.104501
-1.25966 -4.6138 0.523704
-2.00476 -5.70644 0.190053
1.10584 0.00300693 0.000806115
-2.36445e-028 -6.83501e-031 6.60355e-031
-1.00191e-028 -5.33922e-031 1.30574e-032
1.12765 0.00413808 -3.1008e-005
0.780624 0.0046987 -0.000425397
0.749177 0.00668948 0.00190308
1.15 0.00631627 0.000149871
1.10706e-028 -6.14915e-031 -1.19904e-029
1.00097 -0.00151753 -0.00283096
0.901907 0.000620525 0.000491628
-4.47675e-029 -1.92606e-031 1.28973e-032
-1.15257e-028 -4.15786e-032 -2.00845e-031
-2.10768e-028 -5.6792e-031 -2.59462e-031
3.42457e-029 6.54388e-030 1.14077e-029
0.763104 0.00321816 -0.000828666
1.75337e-016 1.13457e-018 2.43351e-020
0.825152 0.00197697 0.00332141
-7.93453e-017 -2.67124e-019 -1.6306e-019
0.753579 0.00300222 0.000959675
-6.46896e-029 4.36726e-032 2.66289e-032
-1.23881e-028 -2.0971e-032 -2.00924e-031
1.14396 -0.000197306 -0.000551588
-2.11277e-028 3.78838e-031 -4.50331e-031
2.19119e-016 4.90002e-020 5.6236e-019
0.96718 -9.44914e-005 0.000186912
-1.73562e-016 4.64512e-019 -3.2112e-019
0.985405 0.000304574 0.00308056
8.06162e-017 1.49747e-019 4.96515e-019
0.937583 -0.00357115 0.00200317
1.09682 0.00441101 -0.00215418
-2.3538e-028 -5.74386e-031 2.39501e-031
1.24819 0.00375597 0.000770727
0.868418 0.00277842 -0.00327845
1.11442 0.00593986 0.00131855
0.937152 8.37514e-005 0.00255448
1.24818 0.00474356 -0.000417951
0.955578 0.00474949 -0.000136786
3.72297e-029 4.90146e-031 -1.71085e-031
-1.03271 -0.019917 0.011439
2.57317e-016 3.35215e-018 -1.01852e-017
-1.35964 -0.0163185 0.0108136
-2.08644 -0.0415534 0.00484753
-3.37488e-030 1.20392e-028 -7.20166e-030
-5.31466e-032 2.04664e-028 -1.27543e-029
0.0273991 -1.42064 0.0752867
-0.00283843 -1.42731 0.0763094
0.0337471 -1.10228 0.0704592
-4.35065e-018 2.27686e-016 -1.37903e-017
0.0231809 -1.2344 0.074044
-0.0012329 -0.920002 -0.00903414
-0.0434631 -0.93738 -0.0297499
-0.00523799 -0.853017 0.00456511
-0.00126744 -0.934969 -0.0133089
-0.0231712 -0.97473 -0.018242
-0.0060581 -0.879754 -0.00304498
-0.00134872 -0.939011 -0.0159541
-0.0193212 -0.933854 -0.0101514
-0.0136363 -0.967855 -0.0198997
-0.00178692 -0.902579 -0.00875366
-0.0285684 -1.09765 -0.0484997
-0.00584741 -1.03792 -0.0352788
-0.00393893 -1.07024 -0.0306445
2.30949e-028 5.20634e-030 1.53554e-030
3.76344e-028 1.00324e-029 1.09707e-030
7.16138e-029 9.04966e-031 1.80305e-031
-1.7745 -0.0278233 -0.00887723
-1.67268 -0.0333335 -0.0111956
-1.69084 -0.0287625 -0.00647017
-4.02716e-016 2.52634e-018 -2.15528e-018
-4.8357e-016 -9.74618e-018 -3.47465e-018
-4.60963e-016 -1.09697e-017 -3.98943e-018
9.15271e-030 3.79743e-029 -1.2617e-030
-1.82825 -5.26598 0.0399125
5.02847e-029 2.4767e-028 -7.45676e-031
1.91038e-029 9.58835e-029 -2.79321e-030
-1.18972 -4.95922 0.158791
-3.58347e-030 -3.23905e-029 -1.20057e-029
-5.87855e-016 -3.19858e-015 1.36927e-016
-1.08327 -4.93759 0.0579391
-1.04814 -4.87632 0.169497
-4.35136e-016 -2.56693e-015 7.4167e-017
-0.0172298 -1.0031 -0.0344449
-0.0295262 -1.01106 -0.033477
-0.0157828 -1.11021 -0.0491494
-0.00472085 -1.04833 -0.0178266
-2.50719e-028 -4.23965e-031 8.02664e-031
-4.26467e-029 1.3517e-031 1.04595e-031
-1.39048e-028 2.11256e-030 9.41738e-032
4.31801e-029 -9.12275e-030 -8.24086e-030
0.923436 0.00726161 -0.0075214
5.73562e-029 -1.98412e-019 -9.03165e-030
0.822415 -0.00895809 -0.00178863
4.00476e-029 -7.54399e-030 -1.01258e-029
0.868534 -0.00212443 0.000926581
-1.13004 -6.01303 -0.0720628
-1.0198 -5.28055 -0.0597104
-1.32737 -5.7816 -0.0686287