# vtk DataFile Version 2.0 
output.vtk, Created by Freefem++, via gregorio
ASCII
DATASET UNSTRUCTURED_GRID
POINTS 7451 double
-3.79965 2.23652 0.040848
-4.13429 2.05574 0.276253
-4.09122 2.24524 0.070091
-4.01836 2.27766 0.330071
-3.96697 2.14613 0.158551
-3.94543 2.24088 0.0554695
-3.90901 2.25709 0.185459
-4.11275 2.15049 0.173172
-4.07633 2.1667 0.303162
-4.05479 2.26145 0.200081
-4.81817 0.732763 -0.840268
-4.76136 0.37264 -0.736193
-5.12328 0.495929 -0.550642
-4.73872 0.559667 -0.434419
-4.78977 0.552702 -0.788231
-4.97072 0.614346 -0.695455
-4.77845 0.646215 -0.637344
-4.94232 0.434285 -0.643417
-4.75004 0.466153 -0.585306
-4.931 0.527798 -0.49253
-7.58244 -0.891248 -0.453516
-8 -0.559587 0.124298
-7.26059 -0.264226 0.250847
-7.58828 -0.999993 0.00381
-7.79122 -0.725418 -0.164609
-7.42152 -0.577737 -0.101334
-7.58536 -0.94562 -0.224853
-7.6303 -0.411906 0.187573
-7.79414 -0.77979 0.064054
-7.42444 -0.632109 0.127328
-5.46564 0.048234 0.998836
-5.51396 -0.351144 0.936321
-5.02851 -0.125769 0.598961
-5.56665 -0.148801 0.504295
-5.4898 -0.151455 0.967578
-5.24708 -0.0387675 0.798898
-5.51614 -0.0502835 0.751565
-5.27124 -0.238457 0.767641
-5.5403 -0.249972 0.720308
-5.29758 -0.137285 0.551628
-4.20269 -2.80441 0.102764
-3.63085 -2.57461 -0.287529
-4.13183 -2.29387 0.255347
-4.14432 -2.47254 -0.273935
-3.91677 -2.68951 -0.0923825
-4.16726 -2.54914 0.179055
-4.1735 -2.63848 -0.0855855
-3.88134 -2.43424 -0.016091
-3.88759 -2.52358 -0.280732
-4.13807 -2.38321 -0.009294
-6.25062 -0.085247 0.575431
-6.51584 -0.423084 -0.15939
-6.46019 0.447486 0.293263
-6.75561 -0.174737 0.413139
-6.38323 -0.254165 0.20802
-6.35541 0.181119 0.434347
-6.88822 -0.343655 0.0457285
-6.86039 0.09163 0.272055
-6.48801 0.012201 0.0669365
-4.88162 0.371746 0.655425
-4.51246 -0.112716 0.623981
-4.65723 0.09269 0.995695
-4.69704 0.129515 0.639703
-4.95507 0.122989 0.627193
-4.76942 0.232218 0.82556
-4.77049 -0.119243 0.611471
-4.58484 -0.010013 0.809838
-4.84287 -0.0165395 0.797328
-3.75099 1.20677 0.090288
-3.64118 0.745776 0.266863
-4.09568 0.790235 0.315934
-3.78936 1.07086 0.69071
-3.69609 0.976272 0.178575
-3.92333 0.998502 0.203111
-3.77017 1.13882 0.390499
-3.86843 0.768006 0.291399
-3.71527 0.908319 0.478787
-3.94252 0.930549 0.503322
-2.18572 0.40145 0.915881
-1.75478 0.245881 0.526965
-1.94554 -0.013967 0.999902
-1.76886 0.356252 0.93439
-1.97025 0.323665 0.721423
-2.06563 0.193741 0.957891
-1.97729 0.378851 0.925135
-1.85016 0.115957 0.763433
-1.76182 0.301067 0.730678
-1.8572 0.171143 0.967146
-5.06116 0.824959 0.710182
-4.88551 0.773989 0.80113
-4.92155 0.772883 0.437198
-5.01596 0.602336 0.857802
-4.97333 0.799474 0.755656
-4.99135 0.798921 0.57369
-5.03856 0.713647 0.783992
-4.90353 0.773436 0.619164
-4.95074 0.688163 0.829466
-4.96876 0.687609 0.6475
-2.34262 2.51752 0.051733
-2.4672 2.85727 -0.311185
-2.29554 2.81673 0.086134
-2.65762 2.74748 0.16058
-2.40491 2.6874 -0.129726
-2.31908 2.66712 0.0689335
-2.50012 2.6325 0.106157
-2.38137 2.837 -0.112526
-2.56241 2.80238 -0.0753025
-2.47658 2.7821 0.123357
-3.50303 -3.76846 -0.636668
-3.49422 -3.29308 -1.15018
-3.31427 -3.71149 -1.25136
-2.90724 -3.34218 -0.858121
-3.49863 -3.53077 -0.893424
-3.40865 -3.73997 -0.944014
-3.20514 -3.55532 -0.747394
-3.40425 -3.50228 -1.20077
-3.20073 -3.31763 -1.00415
-3.11076 -3.52683 -1.05474
-4.0054 2.49156 -0.125899
-3.5956 2.50054 -0.194198
-3.83412 2.54803 0.0159
-3.8005 2.49605 -0.160049
-3.90253 2.36404 -0.0425255
-3.91976 2.5198 -0.0549995
-3.69763 2.36853 -0.076675
-3.71486 2.52428 -0.089149
-3.81689 2.39228 0.028374
-3.73452 -3.68531 -1.05781
-3.52439 -3.6984 -1.15459
-3.61437 -3.4892 -1.104
-3.61877 -3.72688 -0.84724
-6.37864 0.944563 0.328331
-6.25891 0.813305 0.581838
-6.65332 0.772267 0.635298
-6.31878 0.878934 0.455085
-6.41941 0.696025 0.310797
-6.51598 0.858415 0.481815
-6.35955 0.630395 0.43755
-6.45612 0.792786 0.608568
-6.55675 0.609877 0.46428
1.62066 -0.841518 -0.540229
1.89324 0.238579 -0.195511
2.01627 -0.690819 -0.723027
2.25185 -0.211859 0.261412
1.75695 -0.30147 -0.36787
1.81846 -0.766169 -0.631628
1.93625 -0.526689 -0.139408
1.95475 -0.22612 -0.459269
2.07254 0.01336 0.0329505
2.13406 -0.451339 -0.230807
-2.56949 2.06853 0.305158
-2.91403 1.60744 0.564909
-3.02709 2.08175 0.021586
-2.87501 2.07662 0.630995
-2.74176 1.83799 0.435033
-2.79829 2.07514 0.163372
-2.72225 2.07258 0.468077
-2.97056 1.8446 0.293247
-2.89452 1.84203 0.597952
-2.95105 2.07919 0.32629
-5.39985 0.358755 0.933432
-5.34934 0.453264 0.543553
-5.56264 0.558471 0.829524
-5.70805 0.297641 0.954678
-5.37459 0.40601 0.738492
-5.48124 0.458613 0.881478
-5.55395 0.328198 0.944055
-5.45599 0.505868 0.686538
-5.52869 0.375452 0.749116
-5.63535 0.428056 0.892101
-4.17913 0.323834 -0.696515
-4.36183 0.516245 -0.417662
-4.60784 0.019305 -0.528365
-4.46586 0.364911 -0.72315
-4.27048 0.42004 -0.557088
-4.39349 0.17157 -0.61244
-4.3225 0.344372 -0.709832
-4.48483 0.267775 -0.473013
-4.41384 0.440578 -0.570406
-4.53685 0.192108 -0.625757
-5.9377 0.438799 -0.558905
-5.87927 0.529091 -0.848565
-6.25926 0.555743 -0.831354
-6.07929 0.245277 -0.969453
-5.90849 0.483945 -0.703735
-6.09848 0.497271 -0.695129
-6.00849 0.342038 -0.764179
-6.06927 0.542417 -0.839959
-5.97928 0.387184 -0.909009
-6.16928 0.40051 -0.900404
-3.64743 2.72944 0.180305
-3.74077 2.63873 0.0981025
-3.72354 2.48298 0.110576
-3.62151 2.61499 -0.0069465
-3.98168 0.388062 0.141859
-3.76543 0.320245 0.603448
-3.81143 0.566919 0.204361
-3.70331 0.533011 0.435156
-4.03868 0.589149 0.228897
-3.87356 0.354154 0.372653
-3.93055 0.55524 0.459691
-6.17342 0.027823 -0.593282
-6.59748 0.255766 -0.966739
-6.35964 0.547779 -0.240473
-6.21634 0.291783 -0.712318
-6.42837 0.405755 -0.899047
-6.30945 0.551761 -0.535914
-6.38545 0.141794 -0.78001
-6.26653 0.287801 -0.416878
-6.47856 0.401772 -0.603606
-5.98474 0.742767 -0.66955
-5.96122 0.590783 -0.614227
-6.122 0.649255 -0.750452
-5.93201 0.635929 -0.759057
-5.86659 0.345457 -0.129882
-5.96054 -0.099592 -0.035866
-6.02 0.18664 -0.361582
-6.11312 0.446618 -0.185177
-5.91357 0.122933 -0.082874
-6.06698 -0.0358845 -0.314574
-6.16009 0.224094 -0.13817
-1.10421 0.363269 -0.931684
-0.773878 0.737644 -0.67519
-0.520452 0.269543 -0.962988
-0.384634 0.008888 -0.353445
-0.939043 0.550457 -0.803437
-0.812329 0.316406 -0.947336
-0.74442 0.186079 -0.642564
-0.647165 0.503594 -0.819089
-0.579256 0.373266 -0.514317
-0.452543 0.139215 -0.658216
-2.85287 -3.00249 -1.21636
-3.23054 -2.92385 -1.196
-3.06719 -3.3306 -1.25351
-2.88006 -3.17233 -1.03724
-3.06889 -3.13301 -1.02706
-2.98722 -3.33639 -1.05581
-3.0417 -2.96317 -1.20618
-2.96003 -3.16654 -1.23493
-3.14886 -3.12722 -1.22475
-3.38618 -2.05134 -0.098565
-2.37808 -2.56123 -0.134541
-2.49252 -2.47812 0.422472
-2.41131 -1.89586 0.044632
-2.88213 -2.30628 -0.116553
-2.93935 -2.26473 0.161954
-2.89875 -1.9736 -0.0269665
-2.4353 -2.51967 0.143966
-2.39469 -2.22855 -0.0449545
-2.45192 -2.18699 0.233552
-1.85713 -0.413967 0.42138
-1.65927 -0.390905 0.920431
-1.2503 -0.077569 0.384148
-1.80595 -0.084043 0.474172
-1.70702 -0.072512 0.723698
-1.50254 0.084156 0.455557
-1.7582 -0.402436 0.670905
-1.55371 -0.245768 0.402764
-1.45478 -0.234237 0.652289
-2.09043 2.55218 0.167395
-2.0659 2.66009 -0.048555
-2.19298 2.68445 0.126765
-2.18072 2.73841 0.0187895
-2.07816 2.60614 0.05942
-2.21652 2.53485 0.109564
-2.20426 2.58881 0.001589
-4.01665 2.44382 0.136481
-3.97233 2.67361 0.084512
-3.92539 2.49592 0.0761905
-3.99449 2.55872 0.110496
-4.01103 2.46769 0.005291
-3.90323 2.61082 0.050206
-3.98887 2.58259 -0.0206935
-3.92754 1.80484 -0.220103
-4.28096 1.83407 -0.225431
-4.13592 1.88983 -0.461486
-4.146 2.03152 -0.278406
-4.10425 1.81945 -0.222767
-4.03173 1.84734 -0.340795
-4.03677 1.91818 -0.249254
-4.20844 1.86195 -0.343458
-4.21348 1.9328 -0.251918
-4.14096 1.96068 -0.369946
-4.04038 -5 0.949212
-3.62468 -5 1.26221
-3.84559 -4.54287 1.07336
-3.71487 -5 0.728948
-3.83253 -5 1.10571
-3.94299 -4.77144 1.01129
-3.87763 -5 0.83908
-3.73513 -4.77144 1.16779
-3.66977 -5 0.99558
-3.78023 -4.77144 0.901156
-1.37334 0.812082 -0.583544
-0.975724 0.961208 -0.275823
-1.19336 -0.166381 -0.273753
-1.17453 0.886645 -0.429683
-1.07361 0.774863 -0.629367
-1.28335 0.32285 -0.428648
-0.874801 0.849426 -0.475506
-1.08454 0.397413 -0.274788
-0.983618 0.285631 -0.474471
-3.83515 -1.82017 -0.741539
-3.34976 -1.58414 -0.592596
-3.50394 -2.07825 -1.02313
-3.59245 -1.70215 -0.667067
-3.66955 -1.94921 -0.882335
-3.61067 -1.93575 -0.420052
-3.42685 -1.83119 -0.807863
-3.36797 -1.81774 -0.345581
-3.44506 -2.06479 -0.560848
-2.72946 0.769161 0.094533
-2.75119 0.681139 -0.326037
-2.98528 1.02631 -0.281501
-3.08113 0.734324 -0.34324
-2.74032 0.72515 -0.115752
-2.85737 0.897737 -0.093484
-2.90529 0.751742 -0.124353
-2.86823 0.853726 -0.303769
-2.91616 0.707731 -0.334639
-3.03321 0.880319 -0.31237
-2.94023 -2.47675 -0.674772
-3.14499 -2.03044 -0.633684
-3.22209 -2.2775 -0.848951
-3.16321 -2.26404 -0.386669
-3.03914 -4.25341 0.579285
-2.64287 -3.80807 0.20828
-2.47531 -4.18593 0.714333
-2.97264 -3.41482 0.618231
-2.84101 -4.03074 0.393783
-2.75723 -4.21967 0.646809
-3.00589 -3.83412 0.598758
-2.55909 -3.997 0.461307
-2.80776 -3.61144 0.413255
-2.72397 -3.80037 0.666282
-2.39684 -0.595487 -0.803365
-1.98884 -0.54749 -0.836812
-2.24172 -0.466498 -0.098067
-2.21295 -0.01831 -0.514797
-2.19284 -0.571489 -0.820088
-2.31928 -0.530992 -0.450716
-2.3049 -0.306899 -0.659081
-2.11528 -0.506994 -0.46744
-2.1009 -0.2829 -0.675804
-2.22734 -0.242404 -0.306432
-3.36239 -4.55484 -1.31864
-3.11171 -4.25429 -0.873787
-2.86199 -4.55394 -1.36046
-2.79118 -5 -0.96439
-3.23705 -4.40456 -1.09621
-3.11219 -4.55439 -1.33955
-3.07678 -4.77742 -1.14151
-2.98685 -4.40411 -1.11712
-2.95144 -4.62714 -0.919088
-2.82658 -4.77697 -1.16243
-3.88203 2.65205 -0.416886
-3.48121 2.84727 -0.340672
-3.82273 3 -0.474998
-3.72541 2.76868 -0.627028
-3.68162 2.74966 -0.378779
-3.85238 2.82603 -0.445942
-3.80372 2.71037 -0.521957
-3.65197 2.92364 -0.407835
-3.60331 2.80798 -0.48385
-3.77407 2.88434 -0.551013
[...]
POINT_DATA 7451
 
FIELD FieldData 2
velocity 3 7451 double
-0.975331 -2.79113 0.0155673
1.2473e-029 2.88115e-029 -1.05341e-030
4.18177e-030 1.15225e-029 -1.23558e-031
1.06603e-029 2.87369e-029 -1.01902e-030
-0.732787 -1.80477 0.0515686
-0.678287 -1.86711 0.0198484
-0.725346 -2.06172 0.0678131
-1.82584e-017 -4.5009e-017 1.25821e-018
5.31973e-017 1.30388e-016 -6.78748e-018
6.29183e-030 -9.82535e-030 -1.87178e-030
2.21753e-029 1.33557e-029 1.17502e-030
-0.928841 -0.577324 -0.042241
-1.38119 -0.491083 -0.0387181
-1.53408 -0.900986 -0.0468417
-0.597513 -0.400626 -0.0312483
-0.785731 -0.385159 -0.0384915
-1.0537 -0.66921 -0.0656056
-1.19892 -0.559802 -0.0336981
-1.3035 -0.767899 -0.044539
-1.47896 -0.701696 -0.0480572
1.89242e-028 1.5563e-031 4.36922e-031
-1.64389 0.0103223 -0.00187483
-1.87387 -0.00356562 0.00161158
1.13825e-028 -1.66446e-031 2.3511e-031
-1.16142 -0.00243688 -0.00690392
-1.678 -0.00717712 -0.0093081
-2.98325e-016 -5.05717e-019 -1.83709e-018
-1.83992 -0.000922096 -0.00132906
-1.04987 0.00959498 -0.00707039
-1.53535 0.00153535 -0.00390435
6.71829e-029 1.05148e-029 1.28176e-031
4.50227e-029 4.70835e-030 1.32543e-030
-1.29387 -0.26717 -0.0448365
-1.6339 -0.137568 -0.0153993
-3.47644e-016 -3.69232e-017 -9.71825e-018
-0.906353 -0.184636 -0.0192311
-1.12486 -0.121412 -0.0168664
-0.869383 -0.115237 -0.036727
-1.08312 -0.0841694 -0.0293913
-1.48692 -0.195494 -0.0235872
5.46336e-030 6.69608e-029 -6.86978e-031
-0.031924 -0.412146 -0.0184708
5.57127e-030 7.79633e-029 -6.98154e-031
1.5786e-030 1.7484e-029 6.25197e-031
-0.0409932 -0.414931 -0.00235448
7.95305e-017 8.66545e-016 -5.23461e-018
8.51056e-018 8.38952e-017 1.34082e-018
-0.0407146 -0.441181 -0.00379146
-0.0443626 -0.475211 -0.0178138
1.11143e-016 1.14225e-015 1.98917e-017
-1.60013 -0.0399068 -0.0103747
-1.77241 -0.0195034 0.0033521
-1.71388 -0.0310971 -0.0046902
-1.865 -0.0187895 -0.00700293
-1.98335 -0.0372425 -0.00819473
-1.82823 -0.0404892 -0.00838263
-1.93733 -0.00591521 0.00101841
-2.03642 -0.0171046 -0.00757123
-2.12541 -0.0366747 -0.00409522
-1.21583 -0.58986 0.0494247
-0.908475 -0.480688 -0.0958444
3.63322e-029 2.2325e-029 5.93567e-031
-1.16781 -0.587877 -0.0172196
-1.33083 -0.447661 -0.00204941
-0.686586 -0.497937 0.0294005
-1.13078 -0.362748 -0.0659833
-0.661296 -0.502545 -0.0551303
-0.800946 -0.361715 -0.0358898
-1.36407 -2.65698 -0.0154765
-0.761082 -2.2556 -0.0485895
-1.37776 -1.80139 0.0201353
-0.99807 -2.15771 0.0301113
-1.09738 -2.47505 -0.0479992
-1.39389 -2.22963 0.0143845
-1.31981 -2.49149 0.00240971
-1.12241 -2.03437 -0.00799161
-1.00837 -2.33733 -0.0698333
-1.20973 -2.04637 0.0286895
-4.44375e-029 1.46822e-029 -4.42978e-030
0.70313 -0.0945835 0.0309038
-4.06954e-029 1.26384e-029 2.69241e-031
-9.80346e-030 1.65248e-030 -6.82182e-031
0.464947 -0.120568 0.0473461
1.6962e-016 -9.05732e-017 8.92188e-018
8.48634e-018 -2.1763e-018 9.36445e-019
0.452674 -0.114017 0.0190262
0.447296 -0.0705083 0.0299751
-1.5963e-016 3.99459e-017 -9.76554e-018
7.28585e-017 4.18066e-017 -7.92354e-018
7.09985e-030 4.57939e-030 -6.30267e-031
-1.30667 -0.693647 0.0728533
7.25177e-030 4.22857e-030 -5.88244e-031
3.6865e-017 2.36899e-017 -4.49364e-018
-0.791543 -0.440159 0.0687697
4.2737e-016 2.52301e-016 -2.90719e-017
-0.802663 -0.51128 0.0823441
4.22916e-016 3.12661e-016 -4.65966e-017
-0.824142 -0.474795 0.0706874
-0.291776 -2.0244 -0.0155778
-0.170639 -2.54467 -0.0687476
-0.106818 -2.05207 0.0101976
-0.348237 -3.12622 -0.000348608
-0.232064 -2.40129 -0.0107201
-0.199919 -2.03507 -0.00279824
-0.338649 -2.72215 -0.00679681
-0.146075 -2.43513 -0.0189261
-0.272978 -2.98041 -0.00823014
-0.241912 -2.79665 0.0127494
-0.018073 -0.404184 -0.026726
1.88573e-030 5.61869e-029 4.32303e-030
1.20465e-030 5.45872e-029 4.25424e-030
0.0059415 -0.568712 -0.0459284
-0.0207996 -0.510091 -0.0454555
-0.0199055 -0.538471 -0.0432124
-0.015589 -0.478071 -0.0363127
-1.91912e-031 -3.50527e-029 9.69446e-032
-0.0151655 -0.570711 -0.0448361
-0.0135372 -0.551706 -0.0441519
9.11025e-030 3.50329e-029 8.97585e-032
-0.742388 -3.241 -0.0167901
-0.465643 -2.17192 -0.0142177
-0.57725 -2.39087 0.00215585
-0.595733 -1.93365 -0.0117736
-0.29894 -1.24556 -0.0163264
-0.88704 -3.09144 -0.0100856
-0.67389 -2.96794 -0.0141346
-0.7218 -2.51974 -0.0011496
7.40264e-031 1.66852e-029 1.28464e-030
1.60839e-017 3.99504e-016 3.47419e-017
-1.44865e-017 -3.38511e-016 -3.14228e-017
-0.0226204 -0.495454 -0.042489
2.24092e-029 4.72551e-031 9.11787e-033
2.94897e-029 6.73028e-031 -6.20663e-032
3.83319e-029 6.44565e-031 1.94794e-031
1.71206e-016 4.66572e-018 -2.09743e-019
-1.15301 -0.0331459 -0.000768452
-1.70491e-029 -5.00307e-030 -2.39189e-030
-1.13133 -0.0213023 0.000172046
-4.43344e-017 3.04969e-018 -4.02866e-020
-1.1391 -0.0160842 -0.00380158
-2.56103e-028 9.65847e-031 -2.8521e-032
0.763521 -0.00137144 0.00011051
-9.78629e-029 4.24855e-031 -2.15155e-031
0.744321 -0.00141103 0.00144379
0.732334 -0.0063126 0.001544
-1.29001e-016 1.05639e-018 -2.72086e-019
0.686101 -0.00413356 0.000696637
0.716244 -0.00287262 0.00333495
0.826335 -0.00189846 0.00155576
0.722321 -0.00505795 0.00221092
-0.632374 -2.37761 -0.0832984
-0.873426 -2.35806 -0.230261
-0.95748 -3.21817 -0.0221142
-0.694422 -2.6478 -0.109021
-0.809331 -2.53561 -0.15377
-0.857366 -3.03041 -0.0632761
-0.705464 -2.64448 -0.113038
-1.04938 -3.14121 -0.0977993
-0.809495 -2.52146 -0.168392
-0.921934 -3.19033 -0.0771609
7.09127e-030 1.39964e-030 -3.40691e-031
-1.43341 -0.327309 0.0485264
1.51742e-029 1.69841e-030 -5.78014e-031
6.19776e-029 6.03732e-030 -8.25969e-031
-0.878178 -0.165594 0.0504663
-2.45613e-016 -3.39835e-017 1.69705e-017
3.35551e-016 3.65903e-017 -1.96254e-017
-0.858917 -0.139244 0.0443001
-0.879634 -0.111588 0.0346884
-5.57546e-017 -5.24525e-018 3.7069e-018
-0.711104 -1.15044 -0.040364
-1.35411 -1.21876 -0.0318337
-1.18752 -0.577575 0.0302378
-0.870408 -0.862299 -0.0472338
-1.06941 -1.16465 -0.0228167
-0.975958 -0.866965 0.0019319
-0.807487 -1.00382 -0.0425534
-1.28494 -0.87252 -0.00908811
-1.17709 -1.04319 -0.0394417
-1.0899 -0.774149 -0.0130942
-1.32203 -0.0582383 -0.012009
7.64063e-030 2.69508e-031 9.00427e-032
6.24592e-029 1.6098e-030 -5.88338e-032
2.98043e-029 1.03825e-030 5.30339e-032
-0.785107 -0.0247141 -0.00757334
-0.76915 -0.0292712 0.00165074
-0.832067 -0.0300892 -0.00194055
-5.95018e-016 -1.65641e-017 5.45535e-020
-2.83032e-016 -7.60272e-018 -1.55848e-018
-2.48645e-029 -3.57022e-030 6.04305e-030
-0.465485 -3.03419 0.0187007
-0.482394 -2.73475 0.00237386
-0.698851 -2.97946 0.00756521
-0.627472 -3.30498 -0.00820635
-1.01745 -1.43691 -0.0216903
-0.385381 -1.36306 0.0806669
-0.892287 -1.82549 -0.0323697
-0.589682 -1.84978 -0.00880778
-1.21279 -1.66432 -0.00320759
-0.767114 -1.46324 0.00804863
-0.946162 -1.69199 -0.000636182
-1.58491 -0.047268 0.00242522
-8.41668e-017 -3.10737e-020 8.84381e-020
-1.60902 -0.0296217 0.000151097
-1.10441 -0.0384555 0.00352724
-5.9334e-029 -4.76154e-030 6.86541e-030
-1.12546 -0.0235833 0.00725247
-1.00808 -0.0302348 0.005249
-1.78118 -0.0473949 0.00231272
-1.25578 -0.0183847 0.00433032
1.23036e-029 4.45274e-031 2.05735e-031
-0.799023 -0.0307127 -0.00685574
-1.9245e-016 -6.54783e-018 1.69609e-019
-2.56901e-016 -7.32137e-018 -2.34455e-018
-2.01337 -0.125292 -0.00611819
-2.05736 -0.0973637 -0.00246289
-1.92499 -0.0811596 -0.0058509
-1.84752 -0.0609499 -0.00319464
-2.11342 -0.120499 -0.00189811
-2.00148 -0.0781513 -0.00118552
-2.06362 -0.0690054 0.000332589
4.31921e-017 -1.84041e-018 -2.19875e-019
-9.20205e-029 1.73398e-030 4.94038e-031
-3.55342e-029 1.41518e-032 1.11762e-031
0.76523 -0.00351907 0.000634327
-6.50522e-017 2.30931e-018 2.25205e-019
2.73497e-029 -5.10902e-030 1.48344e-029
0.575127 -0.00832463 -0.00291672
-6.8518e-017 8.95527e-020 6.01146e-019
0.631103 -0.0061292 -0.00180172
0.582336 0.00328378 -0.00517039
-2.75429e-031 2.75472e-029 2.36787e-030
8.0425e-031 6.11524e-029 4.69785e-030
5.02012e-032 1.3201e-029 1.11849e-030
0.00614428 -0.572118 -0.061089
-0.00176431 -0.572177 -0.0499572
-0.000960476 -0.582408 -0.0492292
-6.2582e-019 -3.19565e-029 6.3794e-031
4.91396e-019 -1.93216e-016 -1.93965e-017
-1.26466e-018 3.86459e-016 3.38495e-017
0.00524539 -0.253804 -0.00338546
0.0291729 -0.386748 -0.00902583
0.0280303 -0.365892 0.0159955
0.0379439 -0.355702 0.000358808
0.0189964 -0.248057 -0.00273068
0.0170418 -0.253697 0.00481991
0.0273921 -0.232469 -0.000389591
0.0265599 -0.391407 0.00295193
0.0301911 -0.38682 -0.00636645
0.0321424 -0.396672 0.0111052
0.522224 -0.102583 -0.0566348
-4.92768e-029 6.92731e-030 1.77627e-030
0.744897 -0.0413627 -0.00557443
0.711125 -0.114784 -0.00782862
0.488887 -0.0959117 -0.00465696
0.749013 -0.0721035 0.00615116
0.374396 -0.0702947 -0.041731
0.688992 -0.0611081 -0.0238139
0.52258 -0.0565986 -0.01912
-2.2878e-017 -2.87458e-016 2.15449e-018
1.08153e-030 1.24589e-029 8.55005e-032
-0.0782212 -1.16032 0.00740088
-0.081852 -1.18124 0.00201692
-4.73684e-017 -5.84209e-016 1.91801e-018
-0.168452 -1.25063 -0.0066346
-0.152191 -1.24384 -0.0240848
-7.82003e-017 -3.10592e-016 2.62045e-019
2.68465e-030 1.66504e-029 -1.07296e-032
-0.317327 -1.32661 -0.00130333
1.36467e-016 6.9479e-016 6.72732e-018
7.46154e-030 -1.24952e-029 -6.43757e-032
-0.222791 -1.32388 -0.0209541
2.56603e-016 1.3176e-015 2.67978e-017
-1.31223 -2.50156 -0.058543
1.14301e-029 1.80198e-029 3.78279e-031
6.21368e-030 1.17792e-029 5.03871e-031
4.74343e-030 9.16177e-030 2.68085e-031
-0.954312 -1.59627 -0.0435043
-0.942084 -1.74442 -0.0800267
-0.922899 -1.73669 -0.0618094
-5.14139e-016 -8.66342e-016 -3.90738e-017
-2.88826e-015 -4.925e-015 -1.79863e-016
-2.14738e-015 -3.96188e-015 -1.99955e-016
2.01769e-031 5.40865e-030 -2.18893e-031
2.76969e-031 1.36876e-029 -7.73916e-031
1.02906e-030 2.38825e-029 -1.5093e-030
-0.0140217 -0.284724 0.0147521
9.33095e-018 2.86633e-016 -1.45108e-017
1.45554e-018 3.30064e-017 -1.89999e-018
-0.0142949 -0.336398 0.0162576
-7.73323e-018 -2.12468e-016 3.54469e-018
-0.0122716 -0.406685 0.02153
-0.0189498 -0.400854 0.0253629
-1.12526e-028 7.83371e-030 1.59266e-030
-1.08253e-028 2.27479e-030 8.37729e-031
0.754784 -0.0353351 0.00423664
5.26023e-017 -1.99127e-018 -9.12176e-019
-5.84747e-017 2.68768e-018 6.7732e-019
0.758954 -0.0439441 -0.0105766
-1.29565e-016 8.68611e-019 9.9109e-019
0.791909 -0.0181456 -0.00765417
0.711365 -0.0239579 3.54672e-005
-8.64343e-020 -2.61182e-018 -6.22975e-020
0.0261599 -0.628342 -0.0416918
1.99692e-030 1.08462e-028 6.46826e-030
0.0086685 -0.57234 -0.0279846
1.4232e-017 4.45519e-016 1.55914e-017
-0.0193159 -0.686752 -0.0157135
-0.000470729 -0.591843 -0.0370223
0.0119238 -0.510613 -0.0158368
-0.0171912 -0.650952 -0.0288466
1.37558 -2.22947 0.123821
1.17253 -1.5895 -0.335068
-0.209733 -3.24239 0.174337
0.43938 -2.61466 -0.121255
1.27766 -2.11339 -0.111587
0.700624 -3.13138 -0.0794415
0.966865 -2.67751 -0.0938866
0.686526 -2.44311 -0.0998288
0.952347 -2.30032 -0.23676
0.239879 -2.9996 0.0211388
0.0111088 -0.505878 -0.0388113
0.00654889 -0.625756 -0.0355311
-0.0107243 -0.694964 -0.0549534
0.00415868 -0.36559 -0.0123082
0.00110048 -0.123319 0.0103291
0.00821065 -0.224102 0.00312894
0.0169067 -0.304749 0.0238152
-0.00026759 -0.165907 0.0130728
0.00748648 -0.222196 0.00355071
0.00742395 -0.208128 0.0168548
-0.000954511 -0.148085 0.0152292
0.015707 -0.300207 0.0066296
0.00621107 -0.244549 0.00254733
0.0122001 -0.239855 0.0220649
2.51194e-017 -1.73848e-016 -3.6762e-018
1.08581e-016 -3.01676e-017 1.03495e-017
0.490299 -0.189029 0.0143109
0.68333 -0.290923 -0.0100977
1.85211e-029 -1.00472e-029 1.07102e-029
0.30386 -0.338595 0.0326604
0.37046 -0.297589 0.0480991
0.335337 -0.222501 0.0547763
0.393666 -0.211187 0.0442616
0.626824 -0.250794 0.014262
-1.72459e-018 -1.7694e-016 -1.40789e-017
-0.00200281 -0.460749 -0.0336029
-6.65342e-031 5.08778e-029 3.48149e-030
0.00498294 -0.457774 -0.0230186
-0.00438413 -0.513621 -0.0401035
-3.98978e-018 -3.14458e-016 -3.26192e-017
-0.00142962 -0.493814 -0.0316208
0.00207566 -0.508899 -0.0405996
0.00331858 -0.464231 -0.0283668
0.00602656 -0.449836 -0.0306842
6.44021e-030 3.95443e-029 2.14411e-031
-0.368726 -3.2693 -0.0281564
5.66733e-030 1.29735e-028 2.39393e-031
1.02022e-029 6.22572e-029 9.13631e-031
-0.304195 -2.4167 -0.0126504
-3.53945e-016 -3.67635e-015 -1.57953e-017
8.38125e-030 -3.24058e-029 8.50255e-030
-0.190732 -2.44372 -0.0152871
-0.28977 -2.45043 -0.0520746
-2.93956e-016 -3.23547e-015 -5.28907e-017
0.754537 -0.000993698 0.000247499
-3.9413e-029 4.57619e-032 3.32265e-032
-4.08058e-029 1.12945e-031 1.32076e-031
-6.81767e-029 1.09663e-031 1.68877e-031
0.664329 0.000468072 -0.000775788
0.664914 -0.000780419 -0.00263481
0.657847 0.000976889 -0.00252976
2.87833e-029 -8.19354e-020 1.56957e-018
2.65343e-029 -3.4227e-019 6.04461e-019
5.48362e-017 4.02107e-020 -1.54706e-031
0.1799 -0.229093 -0.0280062
0.180759 -0.356466 -0.0220991
0.154784 -0.299905 0.0292915
0.0702854 -0.379162 -0.010069
0.222516 -0.330744 -0.0105278
0.186386 -0.243361 0.00169698
0.108181 -0.3747 -0.00881571
0.177242 -0.374382 -0.00190957
0.138672 -0.307973 -0.0170601
0.129488 -0.344644 -0.00511066
-1.38061e-028 6.32886e-031 -1.7759e-031
-8.5531e-029 4.37222e-031 3.57524e-031
-1.02439e-028 9.57818e-031 -1.65946e-031
0.764833 -0.0063556 -0.00206056
4.0042e-017 -5.03723e-020 -2.52214e-019
7.56034e-019 -4.65953e-021 -1.7772e-021
0.690029 -0.00339641 -0.00299961
1.85176e-018 -7.31951e-021 3.42611e-031
0.646425 -0.000981558 -0.00403991
0.706908 -0.00603401 -0.00041549
2.71802e-029 1.99419e-029 -2.1125e-030
-1.19126 -1.08053 0.140755
9.15194e-030 7.0065e-030 -1.12526e-030
-0.960335 -0.767445 0.108408
-0.835852 -0.5046 0.0743077
2.22165e-015 1.74173e-015 -2.98522e-016
-1.25247 -0.876815 0.108073
-0.831169 -0.710365 0.122659
-0.794527 -0.533808 0.0834047
-1.62797 -0.00591682 0.00614769
3.44653e-028 5.36904e-031 2.31805e-031
2.83905e-029 6.42291e-032 -2.6784e-031
-1.61891 0.000903433 -0.00159652
-1.16094 -0.00976365 -0.00195722
-1.09046 -0.0109899 0.00930152
-1.75508 0.000759925 -0.00189856
-4.92834e-029 2.43203e-031 9.69166e-031
-0.991055 -0.00295252 -0.00715877
-1.08072 0.004616 0.000708162
-6.96211e-029 1.75775e-030 7.89454e-031
-2.66168e-029 1.66739e-030 5.97372e-031
-3.80565e-029 2.83017e-030 1.9628e-030
-9.99206e-017 4.13847e-018 2.49282e-018
-2.5147e-018 1.0709e-019 9.308e-020
0.579684 -0.0195704 -0.00789777
-3.52878e-017 2.19625e-018 1.64954e-018
0.547125 -0.0323548 -0.0137093
0.546396 -0.0332049 -0.0227846
-1.42263e-028 2.22215e-030 -4.57473e-031
0.693009 -0.00957655 0.00025983
0.595775 -0.0116145 0.00439584
0.640569 -0.00898369 0.00196816
0.836392 -0.0218109 -0.00070566
0.852867 -0.00846764 0.00142506
0.771748 -0.0160654 0.00110962
-3.4976e-029 3.88095e-030 -1.73849e-031
-6.35431e-029 2.33766e-030 1.7258e-031
1.20467e-016 -1.0179e-017 -2.1157e-018
1.04411e-016 -8.20899e-018 -1.12743e-018
0.555396 -0.0500147 -0.0018998
9.36635e-018 -5.21664e-019 -2.51354e-019
0.567244 -0.0296483 -0.00898798
-1.14418e-028 -4.80201e-031 2.2841e-031
0.765248 0.00314448 -0.000214993
-7.77753e-029 -3.71773e-031 -5.72984e-032
0.56514 0.00117557 0.00171065
-2.06226e-016 -2.63215e-018 6.90107e-019
0.707641 0.00444534 -0.00175025
0.590146 0.00550616 0.00114669
0.803361 0.00303525 0.00227682
0.619333 0.00732384 -0.00281605
-3.26273e-029 2.14364e-031 -3.09943e-031
-9.254e-029 1.6939e-031 -7.31501e-031
-1.07859e-028 8.42368e-031 -5.19245e-031
7.42534e-017 -1.34097e-018 2.22265e-018
-8.0148e-017 1.64951e-018 -1.95157e-018
0.577987 -0.00736384 0.0140569
-5.17957e-017 1.07165e-018 -1.01914e-018
0.595216 -0.00780803 0.0106428
0.597263 -0.00986991 0.00621983
-1.43558e-029 3.76461e-029 2.3327e-030
0.225149 -0.99508 -0.0864809
-1.88279e-029 3.53124e-029 8.35961e-030
0.541402 -0.630916 -0.0798184
0.240576 -0.674077 -0.0286147
-2.55098e-017 -7.46884e-017 7.93605e-018
0.307532 -0.693676 -0.0447294
0.232181 -0.578512 -0.104592
0.409028 -0.886396 -0.123349
0.4039 -0.653126 -0.132291
-8.65547e-030 3.71996e-030 2.15643e-030
-8.023e-029 7.04029e-030 2.06284e-030
-6.84544e-030 1.3801e-029 2.00128e-030
0.307112 -0.0771056 -0.0795959
0.289954 -0.0577253 -0.0510945
0.242311 -0.129438 -0.0920599
4.24591e-030 8.05278e-030 -6.92927e-030
4.23577e-017 -4.65435e-017 -2.91342e-017
-5.97843e-017 2.99573e-017 2.53195e-017
-4.34023e-029 3.64303e-030 -8.87398e-031
-3.01539e-017 -6.5535e-030 -3.34431e-019
1.15826e-016 -8.08055e-018 2.5924e-019
0.620734 -0.0479281 0.00802607
-0.878467 -3.0287 -0.0703277
1.61258e-029 4.86406e-029 1.5719e-030
-1.1435 -2.88398 -0.0326957
3.51215e-029 1.20852e-028 1.30086e-030
-0.683694 -2.21843 -0.0767824
-1.06903 -3.01589 -0.0658885
-0.666104 -2.48943 -0.0580745
-0.846152 -2.42859 -0.0969192
1.26308e-016 4.16072e-016 1.5869e-017
-0.756258 -2.40849 -0.0489177
-1.02875 -2.88156 0.102916
-1.20071 -3.15375 -0.00943278
-0.88429 -2.437 0.27586
-0.69498 -3.11403 0.171507
-1.15129 -3.14476 0.042348
-0.948112 -2.95544 0.221888
-0.968556 -3.31551 0.065057
-0.779677 -2.83689 0.362109
-1.11732 -3.18803 0.112933
0.767266 0.00158592 0.000906075
-1.72747e-028 -2.78608e-031 3.60949e-031
-7.49436e-029 -3.91458e-031 -5.95187e-032
0.777063 0.00128141 0.000292557
0.583608 0.00242408 0.00126608
0.56564 0.00521992 0.00193891
0.797742 0.004097 0.00148722
8.34056e-029 -6.84432e-031 -1.20049e-029
0.737141 -0.000315863 -0.00144721
0.674604 0.00112668 0.000966584
-3.40255e-029 3.38141e-032 -5.43421e-032
-8.55561e-029 2.95003e-031 -4.00299e-031
-1.54123e-028 -1.51423e-031 -4.33237e-031
2.62893e-029 6.469e-030 1.16243e-029
0.578419 0.00035643 0.000266954
1.38707e-016 4.36542e-019 4.69614e-019
0.618484 -0.00182956 0.00495233
-6.07609e-017 9.57084e-021 -3.50339e-019
0.56494 0.000278269 0.00262583
-4.79737e-029 -6.46029e-033 6.1276e-032
-9.08135e-029 -6.08013e-032 -1.40028e-031
0.760024 -0.000151932 -0.000297121
-1.53074e-028 2.88194e-031 -3.43109e-031
1.67996e-016 3.46611e-019 1.71015e-019
0.71569 0.000942472 -0.000565937
-1.33481e-016 8.67297e-020 -2.13812e-019
0.722815 0.00116545 0.00149489
6.09877e-017 9.36546e-020 3.58594e-019
0.689324 -0.00168444 0.00205924
0.755233 0.00263428 -0.0019205
-1.71618e-028 -4.63631e-031 2.72109e-031
0.861943 0.00241594 0.000490756
0.645308 0.00262752 -0.00425174
0.777518 0.00284047 0.000492016
0.69032 0.00133165 0.00138598
0.851469 0.000489543 0.000188941
0.703961 0.00320146 -0.000442937
2.85652e-029 5.15783e-031 -1.55976e-032
-0.80303 -0.0210561 0.00508321
2.03788e-016 3.7001e-018 -6.30562e-018
-1.04603 -0.0160473 0.0050999
-1.52937 -0.0393964 -0.00148295
-1.65402e-030 5.29813e-029 -3.07194e-030
1.36632e-031 8.23037e-029 -5.26956e-030
0.0132752 -0.616266 0.0291681
-0.00315498 -0.606516 0.0296083
0.0170459 -0.533454 0.0352898
-2.51333e-018 1.12302e-016 -6.81299e-018
0.0123103 -0.552917 0.03328
-0.000325622 -0.17746 -0.00137045
-0.0173775 -0.329541 -0.0113824
0.00110681 -0.169954 0.0019063
-0.00109783 -0.243785 3.8533e-005
-0.00592143 -0.242269 -0.00359512
-0.00146797 -0.164724 -0.00054451
-0.00088911 -0.212438 -0.00456474
-0.00328553 -0.244136 -0.00267957
-0.00179056 -0.27266 -0.00394009
0.00142989 -0.189753 -0.00300968
-0.0106739 -0.37686 -0.0178048
-0.00168813 -0.263778 -0.0088438
-0.00159665 -0.322672 -0.00701404
1.68172e-028 4.27452e-030 9.06326e-031
2.68758e-028 8.50907e-030 -6.30952e-032
5.34065e-029 7.34229e-031 5.72759e-032
-1.3058 -0.0234575 -0.00724397
-1.23265 -0.0312421 -0.0053643
-1.25748 -0.0213213 -0.00325786
-3.00878e-016 -3.58594e-020 -8.82969e-020
-3.72385e-016 -7.77758e-018 -2.70403e-018
-3.56142e-016 -9.5061e-018 -2.28666e-018
5.75348e-030 2.33014e-029 -8.32583e-031
-1.06925 -2.81122 0.0321832
3.02775e-029 1.43896e-028 -8.05055e-031
1.17636e-029 5.75313e-029 -1.73827e-030
-0.746167 -3.04807 0.109092
-1.38237e-030 -2.04438e-029 -1.22985e-029
-3.81885e-016 -2.04225e-015 9.15353e-017
-0.66663 -2.97339 0.0472245
-0.648388 -2.95628 0.113119
-2.78963e-016 -1.6172e-015 5.1565e-017
-0.00943446 -0.423038 -0.0203032
-0.0134745 -0.404568 -0.0146203
-0.00801667 -0.438028 -0.0247713
0.000780418 -0.330861 -0.000436962
-1.84043e-028 -9.35151e-032 7.47864e-031
-3.23133e-029 2.36112e-031 1.34395e-031
-1.04976e-028 3.11672e-030 -1.27336e-031
3.30234e-029 -9.25554e-030 -8.34409e-030
0.688872 0.00651501 -0.00679256