# vtk DataFile Version 2.0 
output.vtk, Created by Freefem++, via gregorio
ASCII
DATASET UNSTRUCTURED_GRID
POINTS 7451 double
-3.79965 2.23652 0.040848
-4.13429 2.05574 0.276253
-4.09122 2.24524 0.070091
-4.01836 2.27766 0.330071
-3.96697 2.14613 0.158551
-3.94543 2.24088 0.0554695
-3.90901 2.25709 0.185459
-4.11275 2.15049 0.173172
-4.07633 2.1667 0.303162
-4.05479 2.26145 0.200081
-4.81817 0.732763 -0.840268
-4.76136 0.37264 -0.736193
-5.12328 0.495929 -0.550642
-4.73872 0.559667 -0.434419
-4.78977 0.552702 -0.788231
-4.97072 0.614346 -0.695455
-4.77845 0.646215 -0.637344
-4.94232 0.434285 -0.643417
-4.75004 0.466153 -0.585306
-4.931 0.527798 -0.49253
-7.58244 -0.891248 -0.453516
-8 -0.559587 0.124298
-7.26059 -0.264226 0.250847
-7.58828 -0.999993 0.00381
-7.79122 -0.725418 -0.164609
-7.42152 -0.577737 -0.101334
-7.58536 -0.94562 -0.224853
-7.6303 -0.411906 0.187573
-7.79414 -0.77979 0.064054
-7.42444 -0.632109 0.127328
-5.46564 0.048234 0.998836
-5.51396 -0.351144 0.936321
-5.02851 -0.125769 0.598961
-5.56665 -0.148801 0.504295
-5.4898 -0.151455 0.967578
-5.24708 -0.0387675 0.798898
-5.51614 -0.0502835 0.751565
-5.27124 -0.238457 0.767641
-5.5403 -0.249972 0.720308
-5.29758 -0.137285 0.551628
-4.20269 -2.80441 0.102764
-3.63085 -2.57461 -0.287529
-4.13183 -2.29387 0.255347
-4.14432 -2.47254 -0.273935
-3.91677 -2.68951 -0.0923825
-4.16726 -2.54914 0.179055
-4.1735 -2.63848 -0.0855855
-3.88134 -2.43424 -0.016091
-3.88759 -2.52358 -0.280732
-4.13807 -2.38321 -0.009294
-6.25062 -0.085247 0.575431
-6.51584 -0.423084 -0.15939
-6.46019 0.447486 0.293263
-6.75561 -0.174737 0.413139
-6.38323 -0.254165 0.20802
-6.35541 0.181119 0.434347
-6.88822 -0.343655 0.0457285
-6.86039 0.09163 0.272055
-6.48801 0.012201 0.0669365
-4.88162 0.371746 0.655425
-4.51246 -0.112716 0.623981
-4.65723 0.09269 0.995695
-4.69704 0.129515 0.639703
-4.95507 0.122989 0.627193
-4.76942 0.232218 0.82556
-4.77049 -0.119243 0.611471
-4.58484 -0.010013 0.809838
-4.84287 -0.0165395 0.797328
-3.75099 1.20677 0.090288
-3.64118 0.745776 0.266863
-4.09568 0.790235 0.315934
-3.78936 1.07086 0.69071
-3.69609 0.976272 0.178575
-3.92333 0.998502 0.203111
-3.77017 1.13882 0.390499
-3.86843 0.768006 0.291399
-3.71527 0.908319 0.478787
-3.94252 0.930549 0.503322
-2.18572 0.40145 0.915881
-1.75478 0.245881 0.526965
-1.94554 -0.013967 0.999902
-1.76886 0.356252 0.93439
-1.97025 0.323665 0.721423
-2.06563 0.193741 0.957891
-1.97729 0.378851 0.925135
-1.85016 0.115957 0.763433
-1.76182 0.301067 0.730678
-1.8572 0.171143 0.967146
-5.06116 0.824959 0.710182
-4.88551 0.773989 0.80113
-4.92155 0.772883 0.437198
-5.01596 0.602336 0.857802
-4.97333 0.799474 0.755656
-4.99135 0.798921 0.57369
-5.03856 0.713647 0.783992
-4.90353 0.773436 0.619164
-4.95074 0.688163 0.829466
-4.96876 0.687609 0.6475
-2.34262 2.51752 0.051733
-2.4672 2.85727 -0.311185
-2.29554 2.81673 0.086134
-2.65762 2.74748 0.16058
-2.40491 2.6874 -0.129726
-2.31908 2.66712 0.0689335
-2.50012 2.6325 0.106157
-2.38137 2.837 -0.112526
-2.56241 2.80238 -0.0753025
-2.47658 2.7821 0.123357
-3.50303 -3.76846 -0.636668
-3.49422 -3.29308 -1.15018
-3.31427 -3.71149 -1.25136
-2.90724 -3.34218 -0.858121
-3.49863 -3.53077 -0.893424
-3.40865 -3.73997 -0.944014
-3.20514 -3.55532 -0.747394
-3.40425 -3.50228 -1.20077
-3.20073 -3.31763 -1.00415
-3.11076 -3.52683 -1.05474
-4.0054 2.49156 -0.125899
-3.5956 2.50054 -0.194198
-3.83412 2.54803 0.0159
-3.8005 2.49605 -0.160049
-3.90253 2.36404 -0.0425255
-3.91976 2.5198 -0.0549995
-3.69763 2.36853 -0.076675
-3.71486 2.52428 -0.089149
-3.81689 2.39228 0.028374
-3.73452 -3.68531 -1.05781
-3.52439 -3.6984 -1.15459
-3.61437 -3.4892 -1.104
-3.61877 -3.72688 -0.84724
-6.37864 0.944563 0.328331
-6.25891 0.813305 0.581838
-6.65332 0.772267 0.635298
-6.31878 0.878934 0.455085
-6.41941 0.696025 0.310797
-6.51598 0.858415 0.481815
-6.35955 0.630395 0.43755
-6.45612 0.792786 0.608568
-6.55675 0.609877 0.46428
1.62066 -0.841518 -0.540229
1.89324 0.238579 -0.195511
2.01627 -0.690819 -0.723027
2.25185 -0.211859 0.261412
1.75695 -0.30147 -0.36787
1.81846 -0.766169 -0.631628
1.93625 -0.526689 -0.139408
1.95475 -0.22612 -0.459269
2.07254 0.01336 0.0329505
2.13406 -0.451339 -0.230807
-2.56949 2.06853 0.305158
-2.91403 1.60744 0.564909
-3.02709 2.08175 0.021586
-2.87501 2.07662 0.630995
-2.74176 1.83799 0.435033
-2.79829 2.07514 0.163372
-2.72225 2.07258 0.468077
-2.97056 1.8446 0.293247
-2.89452 1.84203 0.597952
-2.95105 2.07919 0.32629
-5.39985 0.358755 0.933432
-5.34934 0.453264 0.543553
-5.56264 0.558471 0.829524
-5.70805 0.297641 0.954678
-5.37459 0.40601 0.738492
-5.48124 0.458613 0.881478
-5.55395 0.328198 0.944055
-5.45599 0.505868 0.686538
-5.52869 0.375452 0.749116
-5.63535 0.428056 0.892101
-4.17913 0.323834 -0.696515
-4.36183 0.516245 -0.417662
-4.60784 0.019305 -0.528365
-4.46586 0.364911 -0.72315
-4.27048 0.42004 -0.557088
-4.39349 0.17157 -0.61244
-4.3225 0.344372 -0.709832
-4.48483 0.267775 -0.473013
-4.41384 0.440578 -0.570406
-4.53685 0.192108 -0.625757
-5.9377 0.438799 -0.558905
-5.87927 0.529091 -0.848565
-6.25926 0.555743 -0.831354
-6.07929 0.245277 -0.969453
-5.90849 0.483945 -0.703735
-6.09848 0.497271 -0.695129
-6.00849 0.342038 -0.764179
-6.06927 0.542417 -0.839959
-5.97928 0.387184 -0.909009
-6.16928 0.40051 -0.900404
-3.64743 2.72944 0.180305
-3.74077 2.63873 0.0981025
-3.72354 2.48298 0.110576
-3.62151 2.61499 -0.0069465
-3.98168 0.388062 0.141859
-3.76543 0.320245 0.603448
-3.81143 0.566919 0.204361
-3.70331 0.533011 0.435156
-4.03868 0.589149 0.228897
-3.87356 0.354154 0.372653
-3.93055 0.55524 0.459691
-6.17342 0.027823 -0.593282
-6.59748 0.255766 -0.966739
-6.35964 0.547779 -0.240473
-6.21634 0.291783 -0.712318
-6.42837 0.405755 -0.899047
-6.30945 0.551761 -0.535914
-6.38545 0.141794 -0.78001
-6.26653 0.287801 -0.416878
-6.47856 0.401772 -0.603606
-5.98474 0.742767 -0.66955
-5.96122 0.590783 -0.614227
-6.122 0.649255 -0.750452
-5.93201 0.635929 -0.759057
-5.86659 0.345457 -0.129882
-5.96054 -0.099592 -0.035866
-6.02 0.18664 -0.361582
-6.11312 0.446618 -0.185177
-5.91357 0.122933 -0.082874
-6.06698 -0.0358845 -0.314574
-6.16009 0.224094 -0.13817
-1.10421 0.363269 -0.931684
-0.773878 0.737644 -0.67519
-0.520452 0.269543 -0.962988
-0.384634 0.008888 -0.353445
-0.939043 0.550457 -0.803437
-0.812329 0.316406 -0.947336
-0.74442 0.186079 -0.642564
-0.647165 0.503594 -0.819089
-0.579256 0.373266 -0.514317
-0.452543 0.139215 -0.658216
-2.85287 -3.00249 -1.21636
-3.23054 -2.92385 -1.196
-3.06719 -3.3306 -1.25351
-2.88006 -3.17233 -1.03724
-3.06889 -3.13301 -1.02706
-2.98722 -3.33639 -1.05581
-3.0417 -2.96317 -1.20618
-2.96003 -3.16654 -1.23493
-3.14886 -3.12722 -1.22475
-3.38618 -2.05134 -0.098565
-2.37808 -2.56123 -0.134541
-2.49252 -2.47812 0.422472
-2.41131 -1.89586 0.044632
-2.88213 -2.30628 -0.116553
-2.93935 -2.26473 0.161954
-2.89875 -1.9736 -0.0269665
-2.4353 -2.51967 0.143966
-2.39469 -2.22855 -0.0449545
-2.45192 -2.18699 0.233552
-1.85713 -0.413967 0.42138
-1.65927 -0.390905 0.920431
-1.2503 -0.077569 0.384148
-1.80595 -0.084043 0.474172
-1.70702 -0.072512 0.723698
-1.50254 0.084156 0.455557
-1.7582 -0.402436 0.670905
-1.55371 -0.245768 0.402764
-1.45478 -0.234237 0.652289
-2.09043 2.55218 0.167395
-2.0659 2.66009 -0.048555
-2.19298 2.68445 0.126765
-2.18072 2.73841 0.0187895
-2.07816 2.60614 0.05942
-2.21652 2.53485 0.109564
-2.20426 2.58881 0.001589
-4.01665 2.44382 0.136481
-3.97233 2.67361 0.084512
-3.92539 2.49592 0.0761905
-3.99449 2.55872 0.110496
-4.01103 2.46769 0.005291
-3.90323 2.61082 0.050206
-3.98887 2.58259 -0.0206935
-3.92754 1.80484 -0.220103
-4.28096 1.83407 -0.225431
-4.13592 1.88983 -0.461486
-4.146 2.03152 -0.278406
-4.10425 1.81945 -0.222767
-4.03173 1.84734 -0.340795
-4.03677 1.91818 -0.249254
-4.20844 1.86195 -0.343458
-4.21348 1.9328 -0.251918
-4.14096 1.96068 -0.369946
-4.04038 -5 0.949212
-3.62468 -5 1.26221
-3.84559 -4.54287 1.07336
-3.71487 -5 0.728948
-3.83253 -5 1.10571
-3.94299 -4.77144 1.01129
-3.87763 -5 0.83908
-3.73513 -4.77144 1.16779
-3.66977 -5 0.99558
-3.78023 -4.77144 0.901156
-1.37334 0.812082 -0.583544
-0.975724 0.961208 -0.275823
-1.19336 -0.166381 -0.273753
-1.17453 0.886645 -0.429683
-1.07361 0.774863 -0.629367
-1.28335 0.32285 -0.428648
-0.874801 0.849426 -0.475506
-1.08454 0.397413 -0.274788
-0.983618 0.285631 -0.474471
-3.83515 -1.82017 -0.741539
-3.34976 -1.58414 -0.592596
-3.50394 -2.07825 -1.02313
-3.59245 -1.70215 -0.667067
-3.66955 -1.94921 -0.882335
-3.61067 -1.93575 -0.420052
-3.42685 -1.83119 -0.807863
-3.36797 -1.81774 -0.345581
-3.44506 -2.06479 -0.560848
-2.72946 0.769161 0.094533
-2.75119 0.681139 -0.326037
-2.98528 1.02631 -0.281501
-3.08113 0.734324 -0.34324
-2.74032 0.72515 -0.115752
-2.85737 0.897737 -0.093484
-2.90529 0.751742 -0.124353
-2.86823 0.853726 -0.303769
-2.91616 0.707731 -0.334639
-3.03321 0.880319 -0.31237
-2.94023 -2.47675 -0.674772
-3.14499 -2.03044 -0.633684
-3.22209 -2.2775 -0.848951
-3.16321 -2.26404 -0.386669
-3.03914 -4.25341 0.579285
-2.64287 -3.80807 0.20828
-2.47531 -4.18593 0.714333
-2.97264 -3.41482 0.618231
-2.84101 -4.03074 0.393783
-2.75723 -4.21967 0.646809
-3.00589 -3.83412 0.598758
-2.55909 -3.997 0.461307
-2.80776 -3.61144 0.413255
-2.72397 -3.80037 0.666282
-2.39684 -0.595487 -0.803365
-1.98884 -0.54749 -0.836812
-2.24172 -0.466498 -0.098067
-2.21295 -0.01831 -0.514797
-2.19284 -0.571489 -0.820088
-2.31928 -0.530992 -0.450716
-2.3049 -0.306899 -0.659081
-2.11528 -0.506994 -0.46744
-2.1009 -0.2829 -0.675804
-2.22734 -0.242404 -0.306432
-3.36239 -4.55484 -1.31864
-3.11171 -4.25429 -0.873787
-2.86199 -4.55394 -1.36046
-2.79118 -5 -0.96439
-3.23705 -4.40456 -1.09621
-3.11219 -4.55439 -1.33955
-3.07678 -4.77742 -1.14151
-2.98685 -4.40411 -1.11712
-2.95144 -4.62714 -0.919088
-2.82658 -4.77697 -1.16243
-3.88203 2.65205 -0.416886
-3.48121 2.84727 -0.340672
-3.82273 3 -0.474998
-3.72541 2.76868 -0.627028
-3.68162 2.74966 -0.378779
-3.85238 2.82603 -0.445942
-3.80372 2.71037 -0.521957
-3.65197 2.92364 -0.407835
-3.60331 2.80798 -0.48385
-3.77407 2.88434 -0.551013
[...]
POINT_DATA 7451
 
FIELD FieldData 2
velocity 3 7451 double
-0.12235 -0.347436 0.00951779
1.5191e-030 3.42995e-030 -1.89221e-031
4.40695e-031 1.20206e-030 -5.5893e-032
1.27041e-030 3.41365e-030 -1.73014e-031
-0.083338 -0.203486 0.0114124
-0.0725815 -0.199716 0.00923845
-0.0802377 -0.232147 0.0122626
-1.87336e-018 -4.53754e-018 3.14227e-019
5.66379e-018 1.40954e-017 -1.10285e-018
1.85622e-029 -7.96609e-030 -4.3282e-030
8.79732e-030 2.93197e-030 -1.99163e-031
-0.411256 -0.109317 0.00106345
-0.627158 -0.142638 0.00746344
-0.707024 -0.230924 0.00613928
-0.227251 -0.0769817 0.00704353
-0.306593 -0.0932171 0.00986389
-0.405759 -0.146985 0.00938342
-0.535466 -0.134371 0.00699336
-0.593148 -0.174671 0.00533462
-0.67666 -0.192749 0.00843807
9.44321e-029 -2.9163e-031 2.72113e-032
-0.848305 0.00732017 -0.000626205
-1.10629 4.41169e-005 -0.000602439
5.45294e-029 -2.19546e-031 5.24606e-032
-0.552544 0.00343423 7.41843e-005
-0.836547 6.32331e-006 -0.00253371
-1.34488e-016 2.49958e-019 -3.15906e-019
-1.00881 0.001284 -7.57376e-005
-0.479802 0.00634939 -0.000802262
-0.742832 0.00192308 -0.000178087
3.2132e-029 3.3249e-030 5.75049e-032
2.11551e-029 1.35274e-030 2.75618e-031
-0.701074 -0.104919 -0.0137585
-0.885967 -0.0622845 -0.00508433
-1.47379e-016 -6.67481e-018 -1.46476e-018
-0.423259 -0.0483224 -0.00392603
-0.526932 -0.0336214 -0.00350354
-0.404012 -0.0314046 -0.00760616
-0.506059 -0.0233054 -0.00491662
-0.799165 -0.0858976 -0.00849879
-4.18084e-030 -6.39859e-029 1.82349e-030
0.0263904 0.427354 0.00315311
-4.56025e-030 -7.5826e-029 2.32959e-030
-8.00669e-031 -9.50738e-030 3.13319e-033
0.0238285 0.29129 -0.00348392
-5.2791e-017 -5.87058e-016 2.1521e-017
-4.02405e-018 -4.06547e-017 5.61651e-019
0.0270127 0.345338 -0.00546833
0.0221782 0.25388 0.000480848
-5.78842e-017 -6.19984e-016 1.05555e-017
-0.831955 -0.0163463 -0.00239924
-1.00475 -0.0096182 -0.00223088
-0.904584 -0.0129793 -0.00091892
-1.01197 -0.00262282 -0.000991572
-1.13367 -0.017318 -0.00317702
-0.986364 -0.0172137 -0.00229176
-1.11756 -0.00468271 -0.00385511
-1.17166 -0.00250964 -0.000479252
-1.27182 -0.0170126 -0.00155246
-0.564255 -0.186682 0.00461565
-0.570815 -0.102043 -0.020272
1.82874e-029 5.01545e-030 1.93541e-031
-0.624397 -0.16549 -0.00820941
-0.689841 -0.154561 -0.00385511
-0.309899 -0.109062 0.00318825
-0.635688 -0.112085 -0.0189088
-0.342449 -0.093346 -0.0102735
-0.390437 -0.0842954 -0.00827429
-0.430156 -0.453402 -0.0223108
-0.466673 -0.264111 -0.049281
-0.606128 -0.335651 -0.0144034
-0.239444 -0.300935 -0.00034424
-0.465187 -0.384495 -0.0387362
-0.519766 -0.397145 -0.0197812
-0.393865 -0.416878 -0.0156438
-0.554065 -0.308752 -0.0317077
-0.386837 -0.327303 -0.0236993
-0.423122 -0.334395 -0.00718893
-1.67582e-029 -6.25281e-030 1.092e-030
0.348773 0.0520779 -0.00623458
-2.01385e-029 -5.97676e-030 -3.69108e-031
-4.25822e-030 -2.17235e-031 2.09442e-032
0.188113 0.0292599 -0.00581633
6.02981e-017 5.1908e-018 2.32581e-018
3.22034e-018 2.15303e-019 -2.33727e-020
0.213246 0.0169697 -0.00124772
0.199036 0.0110037 0.00115484
-6.92467e-017 -5.63083e-019 -8.80345e-019
2.49999e-017 1.16284e-017 -7.05803e-019
2.69398e-030 1.22917e-030 -5.22897e-032
-0.508917 -0.210479 0.00889966
2.87783e-030 1.17728e-030 -5.43816e-032
1.25049e-017 6.27083e-018 -3.93894e-019
-0.286742 -0.126815 0.00672831
9.83882e-017 6.95999e-017 -3.6112e-018
-0.286869 -0.138469 0.00777453
1.52431e-016 7.80725e-017 -3.44988e-018
-0.316403 -0.135149 0.00585322
-0.033179 -0.236393 -0.0135827
-0.0203973 -0.251312 -0.00883652
-0.0125833 -0.235833 -0.00697266
-0.05225 -0.498638 -0.0152163
-0.0289574 -0.266541 -0.0112039
-0.0231394 -0.237214 -0.0104511
-0.045541 -0.378271 -0.0163309
-0.0187596 -0.26906 -0.00947093
-0.0381091 -0.394705 -0.0124217
-0.0320807 -0.382779 -0.011726
0.0113342 0.270287 0.00818984
-6.36578e-031 -2.0252e-029 -1.0202e-030
-3.18332e-031 -1.5501e-029 -8.76156e-031
-0.00174505 0.226575 0.0128652
0.0064022 0.144685 0.00806356
0.00555339 0.141982 0.00808194
0.0047693 0.276379 0.011757
2.15797e-029 2.08384e-030 6.26771e-029
0.00226064 0.135379 0.00916357
0.00113572 0.116672 0.00827822
9.391e-031 3.46082e-030 -9.74778e-032
-0.0905961 -0.371023 0.00389267
-0.0484896 -0.229543 0.00499422
-0.0580548 -0.233249 0.00627781
-0.0603066 -0.194153 0.00617978
-0.0276244 -0.117239 0.00340974
-0.110359 -0.371834 0.00582515
-0.0760702 -0.329614 0.0056786
-0.0823905 -0.28712 0.00757684
-2.56568e-031 -4.54271e-030 -2.217e-031
-3.63635e-018 -6.91099e-017 -5.11557e-018
3.54765e-018 6.17665e-017 4.47994e-018
0.00768519 0.13706 0.00666444
1.00239e-029 1.71208e-031 2.11476e-033
1.32805e-029 2.21831e-031 1.5647e-032
1.73254e-029 1.84423e-031 4.24394e-032
6.95811e-017 1.53882e-018 8.47222e-020
-0.520963 -0.0128181 -0.00050599
-4.83881e-030 -4.39202e-029 -2.21848e-029
-0.511449 -0.00650118 -0.000659827
-1.81805e-017 8.20718e-019 1.71907e-019
-0.520483 -0.00586538 -0.00103061
-1.4628e-028 3.69098e-031 -7.05746e-032
0.485722 0.000573679 0.000719951
-5.40936e-029 3.72255e-032 -1.27387e-031
0.473218 -0.00219141 0.00130526
0.416452 -0.0012654 0.000284297
-6.68011e-017 3.48316e-020 -3.0451e-019
0.375841 -0.00022106 0.00135959
0.393996 0.000703186 0.00085967
0.535935 -0.00104625 0.00163328
0.39738 -0.00115445 0.00173916
-0.0804017 -0.329986 -0.0288609
-0.118756 -0.34373 -0.0341472
-0.170819 -0.53406 -0.0261415
-0.0910365 -0.412978 -0.0214296
-0.107108 -0.364168 -0.0345895
-0.134726 -0.482503 -0.0337121
-0.0938687 -0.402083 -0.0296705
-0.178489 -0.518751 -0.0378269
-0.108416 -0.385662 -0.0282954
-0.152203 -0.552137 -0.0313501
3.03214e-030 4.00865e-031 -6.6642e-032
-0.66933 -0.123812 0.010015
6.55705e-030 5.25921e-031 -1.15287e-031
2.91061e-029 1.94427e-030 -1.49492e-031
-0.37717 -0.0499835 0.0102996
-9.80294e-017 -7.77087e-018 3.41896e-018
1.36395e-016 6.19625e-018 -3.96394e-018
-0.364754 -0.0442061 0.00891188
-0.380683 -0.0311473 0.00700679
-2.22398e-017 -7.06456e-019 7.78196e-019
-0.403872 -0.101827 -0.0145575
-0.687037 -0.233546 -0.0114248
-0.729174 -0.113025 -0.00680149
-0.409199 -0.11809 -0.00511724
-0.567251 -0.170135 -0.0140847
-0.583064 -0.118423 -0.0114875
-0.411131 -0.114241 -0.00960881
-0.74368 -0.175109 -0.0115527
-0.578942 -0.181748 -0.00661119
-0.593956 -0.127576 -0.00635548
-0.627742 -0.013588 0.00193006
3.26209e-030 3.83252e-032 -6.72786e-033
2.90544e-029 3.54601e-031 -1.49315e-031
1.33779e-029 1.80323e-031 -2.70972e-032
-0.33833 -0.00336377 0.00129613
-0.335862 -0.00629878 0.00283547
-0.366443 -0.00424614 0.00202826
-2.40022e-016 -1.91083e-018 2.10936e-018
-1.15711e-016 -2.41511e-019 1.04776e-018
-1.07466e-029 -2.08402e-029 4.67842e-029
-0.0587381 -0.397278 0.00546835
-0.0557099 -0.320686 0.00565246
-0.0865959 -0.369398 0.00671566
-0.0793292 -0.413059 0.00418013
-0.741859 -0.152696 -0.0438111
-0.409071 -0.039149 -0.0206056
-0.604478 -0.203852 -0.049293
-0.464084 -0.144667 -0.0395501
-0.695149 -0.262705 -0.0311063
-0.615005 -0.0962507 -0.0368704
-0.547319 -0.209119 -0.0222859
-0.81239 -0.0103563 0.000548845
-3.67243e-017 4.32559e-020 8.28053e-020
-0.812795 -0.00913612 0.00350667
-0.507919 -0.00735448 0.00301131
-2.43419e-029 -2.97718e-029 5.87228e-029
-0.507996 -0.00582697 0.00456319
-0.461479 -0.00798111 0.00171801
-0.943651 -0.0126784 0.00305921
-0.591657 -0.00287147 0.0030341
5.27186e-030 9.22264e-032 -8.21134e-033
-0.342922 -0.00644817 0.0020297
-7.74148e-017 -1.26289e-018 1.73201e-018
-1.02242e-016 -8.39881e-019 6.57005e-019
-1.11509 -0.0514706 0.00286814
-1.2495 -0.0418665 -0.00320664
-1.0617 -0.0266871 0.000695244
-0.980265 -0.0225027 0.00348769
-1.24748 -0.0507922 0.000214175
-1.14028 -0.0263584 -0.00144619
-1.1887 -0.027496 0.00146975
1.98632e-017 -1.53413e-019 -3.1455e-019
-4.77188e-029 4.59825e-031 4.65424e-031
-1.76925e-029 5.33204e-032 9.26335e-032
0.476847 -0.00459357 -0.000874069
-3.05581e-017 2.81996e-019 4.44757e-019
1.31439e-029 -3.15542e-029 9.53835e-029
0.291241 -0.00295535 -0.00292696
-3.14866e-017 1.04233e-019 3.21584e-019
0.325897 -0.0036514 -0.00232872
0.294322 9.07228e-005 -0.00200772
7.55769e-032 -7.04889e-030 -5.49745e-031
-3.17699e-031 -2.16969e-029 -1.30222e-030
-6.05161e-033 -2.60716e-030 -1.95427e-031
-0.00126677 0.118912 0.00924478
0.00199822 0.125872 0.0100148
4.32567e-005 0.114756 0.00806966
-7.1231e-019 -6.87992e-017 -5.69634e-018
-7.79351e-020 2.67299e-017 2.41626e-018
-1.29408e-018 -5.65506e-017 2.58724e-018
0.0217526 0.707457 -0.00667878
-0.0255115 0.512868 -0.00117266
-0.0279403 0.720419 -0.0357428
-0.0281142 0.660815 -0.0176629
-0.00729244 0.751215 -0.00372314
-0.00381528 0.908686 -0.0247343
-0.00652431 0.855341 -0.0148496
-0.0280928 0.669918 -0.0152546
-0.026985 0.588209 -0.00683899
-0.0294549 0.720509 -0.0281887
0.366801 0.161968 0.0239956
-2.58691e-029 -1.66502e-030 -1.73111e-031
0.456408 0.0152377 -0.00241558
0.40877 0.105698 -0.000177433
0.24644 0.00743448 -0.00085672
0.422713 0.0332595 -0.00187384
0.195543 0.00519493 0.00889823
0.412711 0.0527168 -0.00138253
0.268409 0.000967612 -0.00314247
-1.96239e-018 -2.71247e-017 -1.20793e-018
1.07648e-031 1.22178e-030 5.93955e-032
-0.00756473 -0.120038 -0.00446318
-0.00809176 -0.115019 -0.00396762
-4.15883e-018 -5.20207e-017 -2.19579e-018
-0.0165992 -0.12961 -0.00743062
-0.0152822 -0.121741 -0.00782396
-7.42652e-018 -3.00463e-017 1.12907e-018
2.76442e-031 1.75544e-030 -3.73953e-032
-0.0311867 -0.133261 0.00424748
1.24879e-017 6.63421e-017 -1.62994e-018
1.99477e-029 -6.56444e-030 -1.18097e-031
-0.0211783 -0.130899 0.00191994
2.18118e-017 1.18454e-016 -2.51582e-018
-0.183855 -0.295157 0.00799074
1.43878e-030 2.01143e-030 -1.11104e-031
6.77986e-031 1.08823e-030 -5.48444e-032
5.08866e-031 8.85029e-031 -4.60582e-032
-0.112892 -0.169983 0.00949096
-0.10314 -0.164894 0.00834638
-0.100052 -0.169716 0.00864155
-5.14457e-017 -7.76413e-017 5.73797e-018
-3.22453e-016 -4.54422e-016 3.76689e-017
-1.97645e-016 -3.32234e-016 2.30794e-017
-1.29499e-031 -3.87375e-030 1.62221e-031
-1.99261e-031 -1.12691e-029 5.19457e-031
-6.18882e-031 -1.93623e-029 1.0446e-030
0.010097 0.403871 -0.0134724
-3.55498e-018 -1.58915e-016 7.41833e-018
-5.79626e-019 -1.81031e-017 9.36762e-019
0.00651841 0.239633 -0.00885529
3.16509e-018 3.42659e-017 -1.92467e-018
0.00598056 0.295353 -0.0134281
0.00897695 0.288584 -0.0147646
-5.51347e-029 -4.3911e-032 1.2462e-030
-5.7914e-029 3.76713e-031 6.2784e-031
0.480482 -0.0116858 7.14892e-005
2.52867e-017 3.27654e-020 -6.4267e-019
-2.75063e-017 1.57763e-019 6.24904e-019
0.383947 -0.00322666 -0.00830351
-6.25279e-017 5.44017e-019 6.17391e-019
0.420398 -0.00188531 -0.00599765
0.370403 -0.00556494 -0.00334056
5.98407e-020 8.94514e-019 4.23608e-020
0.00723113 0.400639 0.0160684
-2.13659e-030 -5.91166e-029 -2.02681e-030
0.00830486 0.218618 0.010339
-8.99748e-018 -7.1509e-017 -9.20131e-018
0.0197189 0.390337 0.00843957
0.00759489 0.186811 0.012211
0.014929 0.583123 0.0079987
0.0158953 0.380062 0.0135194
0.0198807 -0.0552191 -0.0507356
0.0190484 -0.0108819 -0.0340702
-0.128868 -0.209013 -0.0356592
-0.135561 -0.100785 -0.0473351
0.0177238 -0.0436148 -0.0471966
-0.0621176 -0.159041 -0.0466551
-0.0629344 -0.101818 -0.0562574
-0.0456017 -0.0931683 -0.0322621
-0.0515192 -0.0536666 -0.0411789
-0.126398 -0.158395 -0.0420577
-0.00170928 0.364505 0.0167214
0.00694458 0.410657 0.0168686
0.0072807 0.225424 0.013481
0.00915584 0.574771 0.0103718
0.00069426 0.670738 -0.0283333
-0.0160985 0.677799 -0.0154858
-0.0173664 0.533869 -0.0307027
-0.000703182 0.743085 -0.0421023
-0.00833223 0.72495 -0.0220772
-0.00977957 0.656851 -0.0319956
0.000347874 0.707595 -0.0358225
-0.0189279 0.651881 -0.0237838
-0.0104224 0.75688 -0.0261783
-0.0129216 0.67121 -0.0374702
1.78106e-017 5.37195e-017 3.72993e-018
5.69138e-017 1.42145e-018 1.09059e-019
0.401747 0.441361 -0.0210955
0.301843 0.106945 -0.0260718
-2.79508e-017 -3.06676e-018 4.12314e-029
0.265667 0.292853 -0.0149176
0.201515 0.111869 -0.0180424
0.299427 0.167793 -0.0169659
0.231505 0.057135 -0.0124654
0.384905 0.250454 -0.0292357
7.98648e-019 2.08732e-017 1.62506e-018
0.00199774 0.207828 0.00815617
1.87712e-031 -1.3124e-029 -4.87013e-031
-0.00167445 0.155157 0.00265158
0.00229783 0.0989592 0.00569836
1.30981e-018 3.28014e-017 4.3453e-018
0.00058518 0.0887265 0.00325725
-3.24895e-005 0.0987779 0.00531462
-0.000645431 0.185253 0.00468127
-0.00104345 0.0777151 0.00281898
6.15453e-031 3.32839e-030 -6.92595e-032
-0.0413826 -0.321615 0.0019578
5.72989e-031 1.06746e-029 -1.02715e-031
9.8231e-031 4.86468e-030 -8.65254e-032
-0.0277974 -0.189863 0.00366216
-2.85429e-017 -2.42386e-016 5.45675e-018
2.21885e-029 -4.82418e-030 1.54699e-029
-0.0179384 -0.183623 0.0021047
-0.0257653 -0.176156 0.00174852
-2.28428e-017 -1.97504e-016 2.85312e-018
0.51684 -0.000288877 -0.000175116
-2.01706e-029 2.51711e-032 -4.57497e-033
-2.09718e-029 1.33451e-032 4.00281e-033
-3.57231e-029 4.9049e-032 6.34571e-033
0.347477 0.00013846 -8.36476e-005
0.349092 -0.000133343 -0.000228406
0.347027 -0.000299913 6.18271e-005
1.41321e-029 -6.64159e-020 9.96961e-020
1.28146e-029 2.99917e-021 -1.15872e-020
2.53854e-017 -1.67507e-020 -1.37708e-030
0.201602 0.751943 -0.0456615
-0.0114029 0.796206 -0.028786
-0.017229 0.929152 -0.0872436
0.0359942 0.713736 -0.00540472
0.091856 0.902586 -0.0526881
0.0687647 0.883257 -0.0754969
0.136471 0.844942 -0.0393819
-0.0178153 0.982441 -0.0656857
0.0523318 0.815681 -0.0195161
0.0432892 0.986413 -0.056718
-7.55755e-029 1.08995e-031 2.26197e-032
-4.44986e-029 8.60017e-032 8.85277e-032
-5.52545e-029 4.43272e-031 -4.98285e-032
0.47277 -0.00387256 0.000118975
1.97278e-017 -6.57418e-023 -9.89123e-020
1.96644e-017 -4.4673e-022 -4.76044e-022
0.373215 4.64161e-005 -0.00127799
9.07971e-019 1.03572e-028 3.42972e-030
0.333204 0.000511443 -0.0010192
0.379249 -0.00258217 0.000698676
8.17809e-030 4.76392e-030 -2.4811e-031
-0.394285 -0.239743 0.0120247
2.78508e-030 1.65355e-030 -1.0504e-031
-0.268538 -0.17227 0.0101987
-0.260621 -0.139493 0.00811794
5.73871e-016 3.8703e-016 -2.9287e-017
-0.451782 -0.228372 0.0103746
-0.237509 -0.155933 0.0115784
-0.250269 -0.137699 0.00821519
-0.840527 0.000932067 0.00602211
1.78815e-028 -2.31474e-031 -2.62333e-031
1.329e-029 -8.65889e-032 -1.66099e-031
-0.839451 0.00519371 0.00297749
-0.556308 0.00277145 0.00281243
-0.50104 -0.000373869 0.00636819
-0.929288 0.0040979 0.00361688
-2.29645e-029 3.25847e-029 6.06303e-029
-0.473146 0.00438825 0.00196799
-0.505614 0.00646197 0.00356744
-3.59851e-029 3.2471e-031 1.97619e-031
-1.31817e-029 1.9471e-031 1.54801e-031
-2.03643e-029 -8.83967e-031 1.79905e-032
-4.55542e-017 2.00437e-018 3.37628e-019
-1.17862e-018 1.78763e-020 3.61502e-020
0.297476 -0.00221245 -0.00145945
-1.61686e-017 4.1332e-019 5.7119e-019
0.274644 -0.0053009 -0.0022973
0.28395 0.00447396 -0.0105822
-7.89462e-029 1.30578e-030 -2.94635e-031
0.381395 -0.00640065 0.000683296
0.319106 -0.00983439 0.00214285
0.345736 -0.00698914 0.000820408
0.530672 -0.00833089 5.19816e-005
0.548421 -0.00561165 -0.000110272
0.482974 -0.0105199 -0.000503892
-1.72574e-029 -1.89654e-031 2.56779e-032
-3.24008e-029 4.13085e-031 -2.05188e-032
5.36725e-017 -2.59711e-018 -3.02254e-019
4.6936e-017 -1.96858e-018 -3.24798e-019
0.278833 -0.00281962 -0.000742251
4.20453e-018 -2.09888e-019 -4.90931e-020
0.286606 -0.00370574 -0.00279922
-6.04346e-029 2.55313e-031 2.47165e-031
0.472413 0.00158159 -0.000701158
-4.02008e-029 1.42911e-031 1.04559e-031
0.289248 -0.0015461 -0.000826679
-9.74478e-017 1.62692e-019 7.01798e-019
0.370228 -0.00307052 -0.00188713
0.300895 -0.000108639 -0.000783594
0.495245 -0.00159774 -0.000800681
0.317899 0.000598765 -0.00218887
-1.61633e-029 1.22067e-031 -1.30221e-031
-4.76145e-029 7.45161e-033 -3.11031e-031
-5.54488e-029 3.02172e-031 -2.67956e-031
3.3355e-017 -5.27467e-019 8.30125e-019
-3.58865e-017 6.07789e-019 -7.95758e-019
0.292381 -0.0038576 0.00573939
-2.3442e-017 3.25862e-019 -3.85334e-019
0.30406 -0.00292838 0.00386859
0.303813 -0.00332819 0.0028868
1.37321e-030 -7.96128e-030 4.38525e-031
-0.180373 0.117061 -0.0216726
1.89675e-030 -3.64585e-030 5.60452e-031
0.0748125 0.216644 -0.0291492
-0.0600233 0.0855796 -0.00565933
-1.36261e-017 -3.99419e-018 6.30495e-021
0.00868736 0.1375 -0.00697169
-0.068126 0.043436 -0.00511322
-0.0686946 0.18024 -0.0236125
-0.00401321 0.0770389 -0.0078607
-6.51866e-030 -3.59113e-030 -7.979e-031
-5.24793e-029 -7.23936e-030 -1.05905e-030
-8.92252e-030 -1.94327e-029 2.62222e-031
0.205291 0.0448737 0.0352717
0.243462 0.0879361 0.0213512
0.256466 0.198325 0.0508481
2.75991e-030 5.10877e-029 -3.15975e-029
5.61684e-017 5.30847e-017 1.273e-017
-6.97884e-017 -4.52598e-017 -1.32733e-017
-2.11631e-029 -1.70423e-031 5.06711e-032
-1.35043e-017 4.07887e-019 -7.12703e-020
5.22224e-017 -1.66985e-018 -2.23579e-020
0.309295 -0.000432783 0.00143401
-0.0936579 -0.2651 0.00273127
1.57641e-030 3.1976e-030 -5.1935e-032
-0.152549 -0.263892 -0.00465718
3.50785e-030 7.8826e-030 4.7952e-032
-0.0600686 -0.137788 0.00368178
-0.127133 -0.273174 -0.000789479
-0.0605021 -0.145825 0.00229097
-0.0839144 -0.152251 0.00167111
9.92634e-018 1.95873e-017 -4.7697e-019
-0.0733578 -0.139525 -0.000107692
-0.287741 -0.325071 -0.0317989
-0.268309 -0.485471 -0.0339928
-0.118614 -0.184068 -0.0160851
-0.22137 -0.281441 -0.0389345
-0.286547 -0.415896 -0.0338181
-0.197832 -0.272898 -0.0258577
-0.224542 -0.36754 -0.0417525
-0.133614 -0.206675 -0.0228393
-0.212408 -0.363562 -0.0306955
0.470689 0.001606 8.55478e-005
-9.5128e-029 -2.59457e-031 3.42818e-031
-3.90072e-029 -1.83115e-031 5.23352e-032
0.483818 0.00210362 -0.000744489
0.307149 0.00244812 -0.000895145
0.290278 0.00241262 0.000644938
0.490798 0.00258526 -0.00106511
4.15707e-029 -8.21392e-030 -1.03191e-028
0.401761 -0.00145274 -0.00158826
0.353355 -0.000376918 -0.000337407
-1.70864e-029 2.53922e-032 1.60698e-032
-4.52767e-029 1.40896e-032 -6.92209e-033
-8.45263e-029 4.45043e-032 4.86698e-032
1.29922e-029 4.65868e-029 8.20954e-029
0.29478 -0.000467913 -0.000209479
6.40383e-017 3.18408e-019 -3.2541e-020
0.323089 0.000653715 0.000447933
-3.03126e-017 -1.0006e-019 2.90085e-020
0.294864 -8.2551e-005 -0.000406028
-2.55958e-029 4.63039e-032 -3.01637e-032
-4.96372e-029 5.37464e-032 -1.06513e-031
0.512589 -0.000581631 0.000263556
-8.57602e-029 1.16365e-031 -2.075e-031
8.38908e-017 -2.0836e-019 4.15078e-019
0.387068 -0.000883377 0.000771407
-6.61769e-017 3.72032e-019 -1.681e-019
0.397797 -0.000720256 0.00197565
3.14276e-017 5.69748e-020 2.07773e-019
0.377399 -0.00226427 0.000651207
0.469769 0.00115432 -0.000622372
-9.49258e-029 3.93015e-032 9.73249e-032
0.539384 9.364e-005 -6.94799e-005
0.344444 0.000251839 -0.000350546
0.472756 0.00199468 0.000425471
0.376508 -0.00154821 0.00111163
0.545999 0.00197137 -0.000947556
0.383156 0.000804195 -0.000344345
1.26241e-029 1.21423e-031 -9.88195e-032
-0.347416 -0.00530619 0.00473966
7.82257e-017 2.94417e-018 -1.14317e-018
-0.462568 -0.00487389 0.00485839
-0.754648 -0.0107062 0.00456519
1.2279e-030 -5.62663e-029 3.55915e-030
1.48354e-031 -1.0374e-028 6.39245e-030
-0.00980969 0.657075 -0.0403495
3.2006e-005 0.663366 -0.0411012
-0.0121782 0.457915 -0.0299442
1.38114e-018 -8.84906e-017 5.89668e-018
-0.00799173 0.544977 -0.0344486
0.000644916 0.539018 -0.00214255
0.0121507 0.279711 0.00226382
0.00427338 0.551149 -0.0077685
0.000146654 0.358526 0.000140061
0.00924068 0.435839 0.000788742
0.00342421 0.548039 -0.00511528
0.000355039 0.451559 -1.03772e-005
0.00851727 0.431241 -0.00231178
0.00523019 0.346213 0.00124433
0.0019314 0.470834 -0.00268887
0.00728745 0.266659 0.00614863
0.00183988 0.379084 0.00540594
0.000942188 0.284827 0.00335412
8.28355e-029 1.53945e-030 6.57373e-031
1.39249e-028 2.80901e-030 9.63235e-031
2.48766e-029 2.90151e-031 1.19871e-031
-0.630928 -0.00810221 -0.00366088
-0.594903 -0.00890735 -0.00589876
-0.594613 -0.0100276 -0.00357706
-1.35913e-016 3.4264e-019 -1.88539e-018
-1.60575e-016 -2.95779e-018 -1.35947e-018
-1.52576e-016 -3.13657e-018 -1.85638e-018
7.16606e-031 2.70337e-030 -5.97796e-032
-0.163725 -0.487699 -0.00388021
4.00602e-030 1.98965e-029 1.24216e-031
1.5068e-030 7.36457e-030 -1.32786e-031
-0.0946036 -0.354822 0.0065586
4.38088e-030 -4.09622e-030 -2.64569e-029
-4.26872e-017 -2.0852e-016 7.32944e-018