# vtk DataFile Version 2.0 
output.vtk, Created by Freefem++, via gregorio
ASCII
DATASET UNSTRUCTURED_GRID
POINTS 7451 double
-3.79965 2.23652 0.040848
-4.13429 2.05574 0.276253
-4.09122 2.24524 0.070091
-4.01836 2.27766 0.330071
-3.96697 2.14613 0.158551
-3.94543 2.24088 0.0554695
-3.90901 2.25709 0.185459
-4.11275 2.15049 0.173172
-4.07633 2.1667 0.303162
-4.05479 2.26145 0.200081
-4.81817 0.732763 -0.840268
-4.76136 0.37264 -0.736193
-5.12328 0.495929 -0.550642
-4.73872 0.559667 -0.434419
-4.78977 0.552702 -0.788231
-4.97072 0.614346 -0.695455
-4.77845 0.646215 -0.637344
-4.94232 0.434285 -0.643417
-4.75004 0.466153 -0.585306
-4.931 0.527798 -0.49253
-7.58244 -0.891248 -0.453516
-8 -0.559587 0.124298
-7.26059 -0.264226 0.250847
-7.58828 -0.999993 0.00381
-7.79122 -0.725418 -0.164609
-7.42152 -0.577737 -0.101334
-7.58536 -0.94562 -0.224853
-7.6303 -0.411906 0.187573
-7.79414 -0.77979 0.064054
-7.42444 -0.632109 0.127328
-5.46564 0.048234 0.998836
-5.51396 -0.351144 0.936321
-5.02851 -0.125769 0.598961
-5.56665 -0.148801 0.504295
-5.4898 -0.151455 0.967578
-5.24708 -0.0387675 0.798898
-5.51614 -0.0502835 0.751565
-5.27124 -0.238457 0.767641
-5.5403 -0.249972 0.720308
-5.29758 -0.137285 0.551628
-4.20269 -2.80441 0.102764
-3.63085 -2.57461 -0.287529
-4.13183 -2.29387 0.255347
-4.14432 -2.47254 -0.273935
-3.91677 -2.68951 -0.0923825
-4.16726 -2.54914 0.179055
-4.1735 -2.63848 -0.0855855
-3.88134 -2.43424 -0.016091
-3.88759 -2.52358 -0.280732
-4.13807 -2.38321 -0.009294
-6.25062 -0.085247 0.575431
-6.51584 -0.423084 -0.15939
-6.46019 0.447486 0.293263
-6.75561 -0.174737 0.413139
-6.38323 -0.254165 0.20802
-6.35541 0.181119 0.434347
-6.88822 -0.343655 0.0457285
-6.86039 0.09163 0.272055
-6.48801 0.012201 0.0669365
-4.88162 0.371746 0.655425
-4.51246 -0.112716 0.623981
-4.65723 0.09269 0.995695
-4.69704 0.129515 0.639703
-4.95507 0.122989 0.627193
-4.76942 0.232218 0.82556
-4.77049 -0.119243 0.611471
-4.58484 -0.010013 0.809838
-4.84287 -0.0165395 0.797328
-3.75099 1.20677 0.090288
-3.64118 0.745776 0.266863
-4.09568 0.790235 0.315934
-3.78936 1.07086 0.69071
-3.69609 0.976272 0.178575
-3.92333 0.998502 0.203111
-3.77017 1.13882 0.390499
-3.86843 0.768006 0.291399
-3.71527 0.908319 0.478787
-3.94252 0.930549 0.503322
-2.18572 0.40145 0.915881
-1.75478 0.245881 0.526965
-1.94554 -0.013967 0.999902
-1.76886 0.356252 0.93439
-1.97025 0.323665 0.721423
-2.06563 0.193741 0.957891
-1.97729 0.378851 0.925135
-1.85016 0.115957 0.763433
-1.76182 0.301067 0.730678
-1.8572 0.171143 0.967146
-5.06116 0.824959 0.710182
-4.88551 0.773989 0.80113
-4.92155 0.772883 0.437198
-5.01596 0.602336 0.857802
-4.97333 0.799474 0.755656
-4.99135 0.798921 0.57369
-5.03856 0.713647 0.783992
-4.90353 0.773436 0.619164
-4.95074 0.688163 0.829466
-4.96876 0.687609 0.6475
-2.34262 2.51752 0.051733
-2.4672 2.85727 -0.311185
-2.29554 2.81673 0.086134
-2.65762 2.74748 0.16058
-2.40491 2.6874 -0.129726
-2.31908 2.66712 0.0689335
-2.50012 2.6325 0.106157
-2.38137 2.837 -0.112526
-2.56241 2.80238 -0.0753025
-2.47658 2.7821 0.123357
-3.50303 -3.76846 -0.636668
-3.49422 -3.29308 -1.15018
-3.31427 -3.71149 -1.25136
-2.90724 -3.34218 -0.858121
-3.49863 -3.53077 -0.893424
-3.40865 -3.73997 -0.944014
-3.20514 -3.55532 -0.747394
-3.40425 -3.50228 -1.20077
-3.20073 -3.31763 -1.00415
-3.11076 -3.52683 -1.05474
-4.0054 2.49156 -0.125899
-3.5956 2.50054 -0.194198
-3.83412 2.54803 0.0159
-3.8005 2.49605 -0.160049
-3.90253 2.36404 -0.0425255
-3.91976 2.5198 -0.0549995
-3.69763 2.36853 -0.076675
-3.71486 2.52428 -0.089149
-3.81689 2.39228 0.028374
-3.73452 -3.68531 -1.05781
-3.52439 -3.6984 -1.15459
-3.61437 -3.4892 -1.104
-3.61877 -3.72688 -0.84724
-6.37864 0.944563 0.328331
-6.25891 0.813305 0.581838
-6.65332 0.772267 0.635298
-6.31878 0.878934 0.455085
-6.41941 0.696025 0.310797
-6.51598 0.858415 0.481815
-6.35955 0.630395 0.43755
-6.45612 0.792786 0.608568
-6.55675 0.609877 0.46428
1.62066 -0.841518 -0.540229
1.89324 0.238579 -0.195511
2.01627 -0.690819 -0.723027
2.25185 -0.211859 0.261412
1.75695 -0.30147 -0.36787
1.81846 -0.766169 -0.631628
1.93625 -0.526689 -0.139408
1.95475 -0.22612 -0.459269
2.07254 0.01336 0.0329505
2.13406 -0.451339 -0.230807
-2.56949 2.06853 0.305158
-2.91403 1.60744 0.564909
-3.02709 2.08175 0.021586
-2.87501 2.07662 0.630995
-2.74176 1.83799 0.435033
-2.79829 2.07514 0.163372
-2.72225 2.07258 0.468077
-2.97056 1.8446 0.293247
-2.89452 1.84203 0.597952
-2.95105 2.07919 0.32629
-5.39985 0.358755 0.933432
-5.34934 0.453264 0.543553
-5.56264 0.558471 0.829524
-5.70805 0.297641 0.954678
-5.37459 0.40601 0.738492
-5.48124 0.458613 0.881478
-5.55395 0.328198 0.944055
-5.45599 0.505868 0.686538
-5.52869 0.375452 0.749116
-5.63535 0.428056 0.892101
-4.17913 0.323834 -0.696515
-4.36183 0.516245 -0.417662
-4.60784 0.019305 -0.528365
-4.46586 0.364911 -0.72315
-4.27048 0.42004 -0.557088
-4.39349 0.17157 -0.61244
-4.3225 0.344372 -0.709832
-4.48483 0.267775 -0.473013
-4.41384 0.440578 -0.570406
-4.53685 0.192108 -0.625757
-5.9377 0.438799 -0.558905
-5.87927 0.529091 -0.848565
-6.25926 0.555743 -0.831354
-6.07929 0.245277 -0.969453
-5.90849 0.483945 -0.703735
-6.09848 0.497271 -0.695129
-6.00849 0.342038 -0.764179
-6.06927 0.542417 -0.839959
-5.97928 0.387184 -0.909009
-6.16928 0.40051 -0.900404
-3.64743 2.72944 0.180305
-3.74077 2.63873 0.0981025
-3.72354 2.48298 0.110576
-3.62151 2.61499 -0.0069465
-3.98168 0.388062 0.141859
-3.76543 0.320245 0.603448
-3.81143 0.566919 0.204361
-3.70331 0.533011 0.435156
-4.03868 0.589149 0.228897
-3.87356 0.354154 0.372653
-3.93055 0.55524 0.459691
-6.17342 0.027823 -0.593282
-6.59748 0.255766 -0.966739
-6.35964 0.547779 -0.240473
-6.21634 0.291783 -0.712318
-6.42837 0.405755 -0.899047
-6.30945 0.551761 -0.535914
-6.38545 0.141794 -0.78001
-6.26653 0.287801 -0.416878
-6.47856 0.401772 -0.603606
-5.98474 0.742767 -0.66955
-5.96122 0.590783 -0.614227
-6.122 0.649255 -0.750452
-5.93201 0.635929 -0.759057
-5.86659 0.345457 -0.129882
-5.96054 -0.099592 -0.035866
-6.02 0.18664 -0.361582
-6.11312 0.446618 -0.185177
-5.91357 0.122933 -0.082874
-6.06698 -0.0358845 -0.314574
-6.16009 0.224094 -0.13817
-1.10421 0.363269 -0.931684
-0.773878 0.737644 -0.67519
-0.520452 0.269543 -0.962988
-0.384634 0.008888 -0.353445
-0.939043 0.550457 -0.803437
-0.812329 0.316406 -0.947336
-0.74442 0.186079 -0.642564
-0.647165 0.503594 -0.819089
-0.579256 0.373266 -0.514317
-0.452543 0.139215 -0.658216
-2.85287 -3.00249 -1.21636
-3.23054 -2.92385 -1.196
-3.06719 -3.3306 -1.25351
-2.88006 -3.17233 -1.03724
-3.06889 -3.13301 -1.02706
-2.98722 -3.33639 -1.05581
-3.0417 -2.96317 -1.20618
-2.96003 -3.16654 -1.23493
-3.14886 -3.12722 -1.22475
-3.38618 -2.05134 -0.098565
-2.37808 -2.56123 -0.134541
-2.49252 -2.47812 0.422472
-2.41131 -1.89586 0.044632
-2.88213 -2.30628 -0.116553
-2.93935 -2.26473 0.161954
-2.89875 -1.9736 -0.0269665
-2.4353 -2.51967 0.143966
-2.39469 -2.22855 -0.0449545
-2.45192 -2.18699 0.233552
-1.85713 -0.413967 0.42138
-1.65927 -0.390905 0.920431
-1.2503 -0.077569 0.384148
-1.80595 -0.084043 0.474172
-1.70702 -0.072512 0.723698
-1.50254 0.084156 0.455557
-1.7582 -0.402436 0.670905
-1.55371 -0.245768 0.402764
-1.45478 -0.234237 0.652289
-2.09043 2.55218 0.167395
-2.0659 2.66009 -0.048555
-2.19298 2.68445 0.126765
-2.18072 2.73841 0.0187895
-2.07816 2.60614 0.05942
-2.21652 2.53485 0.109564
-2.20426 2.58881 0.001589
-4.01665 2.44382 0.136481
-3.97233 2.67361 0.084512
-3.92539 2.49592 0.0761905
-3.99449 2.55872 0.110496
-4.01103 2.46769 0.005291
-3.90323 2.61082 0.050206
-3.98887 2.58259 -0.0206935
-3.92754 1.80484 -0.220103
-4.28096 1.83407 -0.225431
-4.13592 1.88983 -0.461486
-4.146 2.03152 -0.278406
-4.10425 1.81945 -0.222767
-4.03173 1.84734 -0.340795
-4.03677 1.91818 -0.249254
-4.20844 1.86195 -0.343458
-4.21348 1.9328 -0.251918
-4.14096 1.96068 -0.369946
-4.04038 -5 0.949212
-3.62468 -5 1.26221
-3.84559 -4.54287 1.07336
-3.71487 -5 0.728948
-3.83253 -5 1.10571
-3.94299 -4.77144 1.01129
-3.87763 -5 0.83908
-3.73513 -4.77144 1.16779
-3.66977 -5 0.99558
-3.78023 -4.77144 0.901156
-1.37334 0.812082 -0.583544
-0.975724 0.961208 -0.275823
-1.19336 -0.166381 -0.273753
-1.17453 0.886645 -0.429683
-1.07361 0.774863 -0.629367
-1.28335 0.32285 -0.428648
-0.874801 0.849426 -0.475506
-1.08454 0.397413 -0.274788
-0.983618 0.285631 -0.474471
-3.83515 -1.82017 -0.741539
-3.34976 -1.58414 -0.592596
-3.50394 -2.07825 -1.02313
-3.59245 -1.70215 -0.667067
-3.66955 -1.94921 -0.882335
-3.61067 -1.93575 -0.420052
-3.42685 -1.83119 -0.807863
-3.36797 -1.81774 -0.345581
-3.44506 -2.06479 -0.560848
-2.72946 0.769161 0.094533
-2.75119 0.681139 -0.326037
-2.98528 1.02631 -0.281501
-3.08113 0.734324 -0.34324
-2.74032 0.72515 -0.115752
-2.85737 0.897737 -0.093484
-2.90529 0.751742 -0.124353
-2.86823 0.853726 -0.303769
-2.91616 0.707731 -0.334639
-3.03321 0.880319 -0.31237
-2.94023 -2.47675 -0.674772
-3.14499 -2.03044 -0.633684
-3.22209 -2.2775 -0.848951
-3.16321 -2.26404 -0.386669
-3.03914 -4.25341 0.579285
-2.64287 -3.80807 0.20828
-2.47531 -4.18593 0.714333
-2.97264 -3.41482 0.618231
-2.84101 -4.03074 0.393783
-2.75723 -4.21967 0.646809
-3.00589 -3.83412 0.598758
-2.55909 -3.997 0.461307
-2.80776 -3.61144 0.413255
-2.72397 -3.80037 0.666282
-2.39684 -0.595487 -0.803365
-1.98884 -0.54749 -0.836812
-2.24172 -0.466498 -0.098067
-2.21295 -0.01831 -0.514797
-2.19284 -0.571489 -0.820088
-2.31928 -0.530992 -0.450716
-2.3049 -0.306899 -0.659081
-2.11528 -0.506994 -0.46744
-2.1009 -0.2829 -0.675804
-2.22734 -0.242404 -0.306432
-3.36239 -4.55484 -1.31864
-3.11171 -4.25429 -0.873787
-2.86199 -4.55394 -1.36046
-2.79118 -5 -0.96439
-3.23705 -4.40456 -1.09621
-3.11219 -4.55439 -1.33955
-3.07678 -4.77742 -1.14151
-2.98685 -4.40411 -1.11712
-2.95144 -4.62714 -0.919088
-2.82658 -4.77697 -1.16243
-3.88203 2.65205 -0.416886
-3.48121 2.84727 -0.340672
-3.82273 3 -0.474998
-3.72541 2.76868 -0.627028
-3.68162 2.74966 -0.378779
-3.85238 2.82603 -0.445942
-3.80372 2.71037 -0.521957
-3.65197 2.92364 -0.407835
-3.60331 2.80798 -0.48385
-3.77407 2.88434 -0.551013
[...]
POINT_DATA 7451
 
FIELD FieldData 2
velocity 3 7451 double
-0.122698 -0.347944 0.00973588
1.63923e-030 3.70284e-030 -2.07351e-031
4.75223e-031 1.29594e-030 -6.12293e-032
1.37141e-030 3.6866e-030 -1.89279e-031
-0.0835676 -0.204104 0.0116284
-0.0727469 -0.200112 0.00940575
-0.0804897 -0.23293 0.0124675
-1.87773e-018 -4.55256e-018 3.1965e-019
5.68239e-018 1.41592e-017 -1.12277e-018
1.99633e-029 -8.57005e-030 -4.65444e-030
9.46611e-030 3.15061e-030 -2.16548e-031
-0.411432 -0.109197 0.00111611
-0.627438 -0.142505 0.0075845
-0.707493 -0.230709 0.00634709
-0.227304 -0.0769081 0.00709534
-0.306664 -0.0931269 0.00993
-0.405909 -0.146838 0.00948958
-0.535702 -0.134232 0.00707581
-0.593486 -0.174472 0.0054441
-0.677029 -0.192552 0.00860253
1.01628e-028 -3.1511e-031 2.93224e-032
-0.848791 0.00733304 -0.000630301
-1.10725 5.31328e-005 -0.000611938
5.86789e-029 -2.36676e-031 5.66966e-032
-0.552773 0.00344792 7.95702e-005
-0.836985 1.63473e-005 -0.00253507
-1.34526e-016 2.51158e-019 -3.15639e-019
-1.00953 0.00129329 -7.99413e-005
-0.479954 0.00635645 -0.000800109
-0.743167 0.00192672 -0.000179438
3.45749e-029 3.57241e-030 6.11197e-032
2.27627e-029 1.45154e-030 2.93546e-031
-0.701393 -0.105082 -0.0136539
-0.88658 -0.0624296 -0.0050682
-1.05868e-016 -6.61088e-018 -1.0175e-018
-0.423368 -0.048142 -0.00388293
-0.527111 -0.0335255 -0.00348396
-0.404114 -0.0313097 -0.00752645
-0.506236 -0.0232427 -0.00486522
-0.799652 -0.086047 -0.00844897
-4.42026e-030 -6.767e-029 2.12645e-030
0.0260132 0.422785 0.00307382
-4.82819e-030 -8.05646e-029 2.67286e-030
-8.50117e-031 -1.01246e-029 -3.21151e-033
0.0234289 0.28657 -0.00362988
-6.26277e-017 -7.03197e-016 1.83106e-017
-3.9668e-018 -4.00625e-017 5.42844e-019
0.0265406 0.33985 -0.00564016
0.0219224 0.251486 0.000740516
-5.7017e-017 -6.10981e-016 1.03505e-017
-0.832466 -0.0163669 -0.00239236
-1.00555 -0.00958862 -0.00226332
-0.905143 -0.0130037 -0.000897659
-1.01269 -0.00261285 -0.000990788
-1.13461 -0.0173419 -0.00319095
-0.987034 -0.0172458 -0.00228234
-1.11849 -0.0046779 -0.00387912
-1.17263 -0.0024995 -0.000470983
-1.273 -0.0170135 -0.00154829
-0.564414 -0.186611 0.00451362
-0.570822 -0.10199 -0.0200181
1.96722e-029 5.3771e-030 2.06636e-031
-0.624585 -0.165509 -0.0081781
-0.690104 -0.15463 -0.00383623
-0.309901 -0.108592 0.00313791
-0.635857 -0.112171 -0.0187388
-0.342393 -0.0926786 -0.0101508
-0.39044 -0.0839065 -0.00819933
-0.430968 -0.45597 -0.0225573
-0.467264 -0.268508 -0.0507503
-0.606815 -0.338711 -0.0150467
-0.239913 -0.30169 -0.00081895
-0.465905 -0.388322 -0.0395854
-0.52051 -0.400333 -0.0202735
-0.394695 -0.420156 -0.0165231
-0.55473 -0.312605 -0.0327782
-0.387452 -0.330183 -0.0249693
-0.423747 -0.336623 -0.00806634
-1.80384e-029 -6.85113e-030 1.25056e-030
0.348668 0.052712 -0.00676133
-2.1654e-029 -6.54572e-030 -3.91995e-031
-4.57896e-030 -2.49896e-031 3.1342e-032
0.18818 0.030319 -0.00647298
6.02782e-017 6.32363e-018 2.21319e-018
3.2218e-018 2.3637e-019 -3.38843e-020
0.21325 0.0179968 -0.00152207
0.199013 0.0116536 0.000853633
-6.92561e-017 -9.58922e-019 -7.89475e-019
2.49935e-017 1.16079e-017 -6.92075e-019
2.89796e-030 1.32103e-030 -5.49624e-032
-0.509029 -0.210915 0.00888358
3.09567e-030 1.26493e-030 -5.73293e-032
1.25026e-017 6.25859e-018 -3.85582e-019
-0.286729 -0.126793 0.0066367
9.83716e-017 4.41313e-017 -3.51516e-018
-0.286878 -0.138397 0.00764597
1.52412e-016 7.78695e-017 -3.34998e-018
-0.316413 -0.135065 0.00572053
-0.0332498 -0.236673 -0.0137441
-0.020443 -0.251994 -0.0089052
-0.0126049 -0.23612 -0.00708983
-0.0524504 -0.499275 -0.0155365
-0.029031 -0.266857 -0.0113088
-0.0231859 -0.237494 -0.0105975
-0.0456863 -0.378671 -0.0166068
-0.018812 -0.269359 -0.00958022
-0.0382183 -0.394962 -0.0125907
-0.0321875 -0.383233 -0.0119498
0.0111541 0.272994 0.00823327
-6.75099e-031 -2.2004e-029 -1.11533e-030
-3.37839e-031 -1.68712e-029 -9.50312e-031
-0.00171332 0.229224 0.0130127
0.00635806 0.146615 0.00816255
0.00547869 0.143786 0.00817823
0.00464794 0.279024 0.0118076
2.3205e-029 2.35665e-030 6.74207e-029
0.00210614 0.137209 0.00929575
0.00106544 0.118265 0.00835954
1.01258e-030 3.72889e-030 -1.06553e-031
-0.0908325 -0.371665 0.00399991
-0.0486147 -0.229817 0.00506944
-0.0581964 -0.233653 0.00637202
-0.060448 -0.194465 0.00629056
-0.0276858 -0.117406 0.00346021
-0.110665 -0.372345 0.00598874
-0.0762714 -0.330019 0.00577614
-0.0826148 -0.287496 0.00771604
-2.73333e-031 -4.94751e-030 -2.43378e-031
-3.60771e-018 -7.01067e-017 -5.19815e-018
3.5354e-018 6.2694e-017 4.55353e-018
0.00761022 0.138685 0.00676182
1.07846e-029 1.84295e-031 1.89131e-033
1.42884e-029 2.38836e-031 1.67208e-032
1.8641e-029 1.98365e-031 4.53373e-032
6.95796e-017 1.53908e-018 8.31928e-020
-0.5211 -0.0128285 -0.000488177
-5.20635e-030 -4.72398e-029 -2.38614e-029
-0.511579 -0.00650522 -0.000654258
8.09491e-017 -1.84277e-019 1.71654e-019
-0.520645 -0.00587183 -0.00102373
-1.57321e-028 3.9641e-031 -7.61816e-032
0.485739 0.000581607 0.000721582
-5.81728e-029 3.93585e-032 -1.37092e-031
0.473232 -0.00219425 0.00130707
0.416392 -0.00125922 0.000283501
-6.67788e-017 3.32656e-020 -3.0489e-019
0.375755 -0.000215386 0.00136219
0.393911 0.000709511 0.000857898
0.535981 -0.00104146 0.0016355
0.397294 -0.00114896 0.00174052
-0.0806895 -0.331149 -0.0294862
-0.119332 -0.347044 -0.0350654
-0.171459 -0.534527 -0.0264974
-0.0915839 -0.41794 -0.0220943
-0.10758 -0.366554 -0.0354687
-0.135247 -0.483465 -0.0343411
-0.0943038 -0.405045 -0.030495
-0.179239 -0.521072 -0.0387207
-0.109014 -0.389836 -0.0291362
-0.152927 -0.554512 -0.0321686
3.26183e-030 4.30184e-031 -7.11432e-032
-0.669542 -0.123941 0.0099812
7.05389e-030 5.65111e-031 -1.23274e-031
3.13183e-029 2.09e-030 -1.59732e-031
-0.377218 -0.0498991 0.0102281
-9.80215e-017 -7.72521e-018 3.3916e-018
1.36391e-016 6.12412e-018 -3.92947e-018
-0.36478 -0.0441657 0.00885273
-0.380731 -0.0310728 0.00695436
-2.22369e-017 -6.93484e-019 7.71907e-019
-0.404157 -0.101643 -0.0145405
-0.687651 -0.23329 -0.0112796
-0.729694 -0.112708 -0.00684493
-0.409437 -0.117943 -0.00507353
-0.567724 -0.169791 -0.0140223
-0.583466 -0.118152 -0.0114786
-0.411403 -0.114073 -0.00957885
-0.744291 -0.174806 -0.0114975
-0.579383 -0.18146 -0.00652513
-0.59435 -0.127335 -0.00633124
-0.627996 -0.013544 0.0019664
3.50942e-030 4.0998e-032 -7.41549e-033
3.12632e-029 3.79975e-031 -1.61422e-031
1.43938e-029 1.93122e-031 -2.94324e-032
-0.338396 -0.00334317 0.00131465
-0.335935 -0.00628266 0.00284672
-0.366529 -0.00422278 0.0020405
-2.4003e-016 -1.90105e-018 2.11708e-018
-1.15718e-016 -2.35021e-019 1.05336e-018
-1.15621e-029 -2.24145e-029 5.03201e-029
-0.0589349 -0.397879 0.00555805
-0.0558763 -0.321094 0.00573084
-0.0868771 -0.369954 0.00683139
-0.0795571 -0.413364 0.00423723
-0.742525 -0.156872 -0.0445958
-0.409567 -0.0383042 -0.0219416
-0.605122 -0.208267 -0.0504603
-0.46463 -0.147651 -0.0412841
-0.695852 -0.266386 -0.0318488
-0.61557 -0.0998253 -0.0381788
-0.547907 -0.211636 -0.0234748
-0.812854 -0.0103038 0.000551344
-3.67315e-017 4.34359e-020 8.29425e-020
-0.813218 -0.00909091 0.00354406
-0.508086 -0.00732693 0.00302042
-2.61918e-029 -3.20209e-029 6.31614e-029
-0.508139 -0.00580885 0.00457703
-0.461627 -0.00796804 0.00171931
-0.944257 -0.012621 0.00308014
-0.591885 -0.00285239 0.00304181
5.67162e-030 9.8791e-032 -9.30455e-033
-0.342984 -0.00642879 0.00205042
-7.74165e-017 -2.63766e-018 1.73813e-018
-1.02242e-016 -8.34889e-019 6.62869e-019
-1.11592 -0.0513933 0.00295332
-1.25071 -0.0418247 -0.00322425
-1.06248 -0.0265938 0.000725545
-0.98089 -0.0224314 0.00354982
-1.24859 -0.0507299 0.000250066
-1.14121 -0.0262689 -0.00144863
-1.18969 -0.0274275 0.00150382
1.98554e-017 -1.52894e-019 -3.13818e-019
-5.13116e-029 4.89015e-031 4.95466e-031
-1.90223e-029 5.6459e-032 9.92353e-032
0.476854 -0.00456341 -0.00086063
-3.05441e-017 2.81388e-019 4.43078e-019
1.41307e-029 -3.39362e-029 1.02587e-028
0.291132 -0.00292576 -0.00291517
-3.14659e-017 1.02487e-019 3.20755e-019
0.32577 -0.00362946 -0.00231911
0.2942 0.00010503 -0.00200056
8.14054e-032 -7.67207e-030 -6.0053e-031
-3.35341e-031 -2.35622e-029 -1.42506e-030
-5.82191e-033 -2.84233e-030 -2.12103e-031
-0.00125112 0.120575 0.0092646
0.00196523 0.127556 0.0101296
2.25093e-005 0.116285 0.00814705
-7.2335e-019 -5.92946e-017 -5.72337e-018
-8.25899e-020 2.71445e-017 2.42146e-018
-1.26317e-018 -5.73891e-017 -5.22708e-018
0.0214614 0.695196 -0.00766836
-0.0251409 0.503804 -0.00171451
-0.0275239 0.71446 -0.0389948
-0.02771 0.647213 -0.0187581
-0.007137 0.737819 -0.00504519
-0.00367977 0.891599 -0.0277488
-0.00632628 0.83955 -0.0165369
-0.0276503 0.65664 -0.0171183
-0.0266131 0.577257 -0.00760285
-0.0289754 0.708796 -0.0303595
0.366477 0.161858 0.0247022
-2.77987e-029 -1.84231e-030 -2.07878e-031
0.456287 0.0152714 -0.00231709
0.408602 0.10612 -0.000207892
0.246251 0.00822905 -0.000844358
0.422533 0.0334741 -0.0020057
0.195129 0.00561929 0.00937902
0.412479 0.0528137 -0.00103344
0.268135 0.00137491 -0.0029736
-1.95497e-018 -2.71952e-017 -1.22848e-018
1.15874e-031 1.31626e-030 6.45007e-032
-0.00755341 -0.120268 -0.00453876
-0.00808544 -0.11519 -0.00401395
-4.1462e-018 -5.21353e-017 -2.22391e-018
-0.0166181 -0.129864 -0.00752488
-0.0152955 -0.121919 -0.00788663
-7.44409e-018 -3.01199e-017 1.14419e-018
2.98079e-031 1.89163e-030 -4.07308e-032
-0.0312629 -0.133516 0.00430646
1.25159e-017 6.6481e-017 -1.65535e-018
2.14537e-029 -7.06235e-030 -1.26397e-031
-0.0212277 -0.131094 0.00195577
2.18546e-017 1.18653e-016 -2.55908e-018
-0.184235 -0.295603 0.00833396
1.5505e-030 2.16688e-030 -1.22862e-031
7.30717e-031 1.17198e-030 -6.02058e-032
5.48557e-031 9.53388e-031 -5.06458e-032
-0.113127 -0.170221 0.00973692
-0.103344 -0.165097 0.00851527
-0.100267 -0.169967 0.00884117
-5.15488e-017 -7.77316e-017 5.8388e-018
-2.86854e-016 -4.5505e-016 3.83989e-017
-1.98052e-016 -3.32644e-016 2.34292e-017
-1.41541e-031 -4.37383e-030 1.96439e-031
-2.23313e-031 -1.3069e-029 6.26762e-031
-6.75745e-031 -2.20418e-029 1.25629e-030
0.0101598 0.415497 -0.0154786
-3.65453e-018 -1.72632e-016 8.27591e-018
-5.88292e-019 -1.94521e-017 1.04202e-018
0.00657387 0.251972 -0.0100252
9.14442e-019 3.73332e-017 -7.60666e-018
0.00616515 0.317576 -0.0150587
0.00910911 0.306369 -0.016495
-5.92902e-029 -6.08535e-032 1.32318e-030
-6.22746e-029 4.01372e-031 6.67213e-031
0.480609 -0.0115147 0.000129524
2.52732e-017 3.62931e-020 -6.346e-019
-2.74928e-017 1.54715e-019 6.18249e-019
0.383855 -0.0031305 -0.00818238
-6.24927e-017 5.40412e-019 6.12336e-019
0.420254 -0.00181721 -0.00590973
0.370306 -0.00551856 -0.0033083
5.95029e-020 9.02435e-019 4.47067e-020
0.00715834 0.401498 0.0164119
-2.2721e-030 -6.35911e-029 -2.22832e-030
0.00821722 0.219478 0.010661
-4.29093e-018 -7.14661e-017 -9.65317e-018
0.0195655 0.389162 0.00875202
0.00752879 0.188048 0.0125192
0.0147613 0.580102 0.00806768
0.0157118 0.380655 0.0139545
0.0202346 -0.0574212 -0.0512731
0.0192494 -0.0110334 -0.03383
-0.128923 -0.209421 -0.0354919
-0.135573 -0.100862 -0.0472145
0.0179754 -0.0449847 -0.0471733
-0.0619106 -0.160769 -0.0466847
-0.0627112 -0.103652 -0.0563834
-0.045467 -0.0933688 -0.0320708
-0.051376 -0.0538237 -0.0410028
-0.126399 -0.158603 -0.0418986
-0.00171376 0.367171 0.0170379
0.00689278 0.412143 0.0172636
0.00721678 0.22764 0.0137823
0.0090174 0.571428 0.0103428
0.00065196 0.669685 -0.033015
-0.0158055 0.65744 -0.0188243
-0.0173165 0.547016 -0.0346554
-0.00061674 0.748158 -0.0476752
-0.00824232 0.711828 -0.0264568
-0.00975253 0.665865 -0.0367236
0.000350761 0.710067 -0.0411457
-0.0187162 0.646362 -0.0278317
-0.0102545 0.746368 -0.0307898
-0.0128406 0.682348 -0.0425401
1.78352e-017 5.38431e-017 3.75953e-018
5.69292e-017 1.41196e-018 9.74016e-020
0.401687 0.439073 -0.021179
0.302093 0.107265 -0.0259438
1.45431e-029 3.92209e-029 4.43497e-029
0.265805 0.292877 -0.0147504
0.201735 0.112106 -0.0179703
0.299531 0.167823 -0.0169206
0.231682 0.0572856 -0.0124502
0.385035 0.249896 -0.029129
8.06426e-019 2.11739e-017 1.64176e-018
0.0019903 0.209826 0.00805471
2.02353e-031 -1.42501e-029 -5.11921e-031
-0.00166653 0.156111 0.00229388
0.00231348 0.100136 0.0057106
1.34532e-018 3.34974e-017 4.4725e-018
0.000570628 0.0895301 0.00313843
-5.21965e-005 0.0999626 0.00532282
-0.000663027 0.186822 0.00436545
-0.00105897 0.0784709 0.00272953
6.63661e-031 3.58901e-030 -7.5014e-032
-0.0414895 -0.322569 0.00195151
6.17421e-031 1.15091e-029 -1.10207e-031
1.0596e-030 5.24825e-030 -9.38715e-032
-0.0278664 -0.190402 0.00367405
-2.8623e-017 -2.43147e-016 5.45209e-018
2.38635e-029 -5.19616e-030 1.66388e-029
-0.0179932 -0.184228 0.00208557
-0.0258348 -0.176763 0.00175652
-2.29131e-017 -1.98234e-016 2.8452e-018
0.516938 -0.000285463 -0.000178831
-2.16874e-029 2.72597e-032 -4.72658e-033
-2.25493e-029 1.42626e-032 4.4007e-033
-3.84117e-029 5.28132e-032 6.97638e-033
0.347354 0.000135492 -8.71603e-005
0.348974 -0.000132624 -0.000229935
0.346911 -0.000302468 6.10164e-005
1.51934e-029 -6.46591e-020 -1.12408e-029
1.37768e-029 4.27333e-021 -1.11524e-020
2.5369e-017 7.17352e-029 -1.48123e-030
0.20188 0.74479 -0.0467282
-0.0111259 0.790389 -0.029242
-0.0170044 0.927267 -0.090153
0.0361065 0.707502 -0.00573319
0.0921089 0.893013 -0.0539295
0.0691179 0.878142 -0.0778231
0.136416 0.83634 -0.040275
-0.0175038 0.971951 -0.0674511
0.0525176 0.809006 -0.0199677
0.0435094 0.97586 -0.0585247
-8.12742e-029 1.16327e-031 2.28083e-032
-4.78489e-029 9.04249e-032 9.22537e-032
-5.94214e-029 4.7486e-031 -5.6086e-032
0.472748 -0.00385926 0.000154691
1.972e-017 -5.87992e-023 -9.77144e-020
1.96585e-017 -4.40079e-022 -4.71074e-022
0.373126 4.95621e-005 -0.00126307
9.07642e-019 -2.07557e-022 -6.80465e-022
0.333096 0.000531277 -0.000987722
0.379173 -0.00256973 0.000708286
8.79979e-030 5.13391e-030 -2.69153e-031
-0.394492 -0.240283 0.0117501
2.99628e-030 1.78002e-030 -1.11953e-031
-0.268643 -0.172548 0.0101827
-0.260646 -0.139669 0.00815826
5.73968e-016 3.87266e-016 -2.92634e-017
-0.451934 -0.228877 0.0102447
-0.237561 -0.156052 0.0114444
-0.250284 -0.137802 0.00815367
-0.841021 0.000947948 0.00603176
1.92458e-028 -2.51107e-031 -2.82782e-031
1.43008e-029 -9.35014e-032 -1.78843e-031
-0.83996 0.00521201 0.00298634
-0.556555 0.00279132 0.00282109
-0.501212 -0.00036234 0.00637548
-0.929892 0.00411534 0.00362841
-2.47101e-029 3.50494e-029 6.52153e-029
-0.47335 0.00440417 0.00198021
-0.505809 0.00647617 0.00357588
-3.869e-029 3.35528e-031 1.96706e-031
-1.4167e-029 1.94943e-031 1.60063e-031
-2.18872e-029 -9.6848e-031 -1.03697e-032
-4.55086e-017 1.95176e-018 3.11672e-019
-1.17766e-018 1.64965e-020 3.4556e-020
0.297309 -0.0020539 -0.00130102
-1.61511e-017 3.88339e-019 5.51316e-019
0.274407 -0.00504539 -0.00221052
0.283769 0.00474576 -0.0102136
-8.4912e-029 1.40026e-030 -3.22091e-031
0.381357 -0.00638732 0.000707604
0.319105 -0.00977226 0.00214507
0.345679 -0.0069667 0.000834431
0.530703 -0.00836589 0.000115856
0.548455 -0.00563302 -8.61544e-005
0.48302 -0.0104303 -0.000468777
-1.85487e-029 -2.35789e-031 3.20645e-032
-3.483e-029 4.2582e-031 -2.16503e-032
5.36029e-017 -2.49682e-018 -2.9684e-019
4.68848e-017 -1.89046e-018 -4.47372e-019
0.278588 -0.00245045 -0.000746974
4.19998e-018 -2.04237e-019 -4.8414e-020
0.286423 -0.0034968 -0.00278296
-6.49819e-029 2.74954e-031 2.64124e-031
0.4724 0.00157555 -0.000704549
-4.32244e-029 1.53185e-031 1.11881e-031
0.289122 -0.00154804 -0.000825713
-9.73853e-017 1.6275e-019 6.98341e-019
0.370082 -0.00306295 -0.00186867
0.300766 -0.000111063 -0.00078064
0.49524 -0.00159014 -0.000799959
0.317767 0.000606353 -0.0021825
-1.73776e-029 1.3136e-031 -1.3995e-031
-5.1196e-029 7.68838e-033 -3.34289e-031
-5.96194e-029 3.2445e-031 -2.8823e-031
3.33313e-017 -5.27172e-019 8.29131e-019
-3.58605e-017 6.07174e-019 -7.95063e-019
0.292256 -0.00385836 0.00573456
-2.34256e-017 3.25266e-019 -3.84884e-019
0.303936 -0.00292586 0.0038636
0.303685 -0.00332269 0.00288557
1.47212e-030 -8.5818e-030 4.70604e-031
-0.180409 0.117413 -0.0216394
2.03664e-030 -3.93449e-030 6.0218e-031
0.0750603 0.217353 -0.0289999
-0.060005 0.0856911 -0.00565532
-1.36502e-017 -6.1577e-018 2.66943e-019
0.00881447 0.137796 -0.0069745
-0.0681159 0.04351 -0.00511641
-0.0686501 0.180833 -0.0235599
-0.00391373 0.077267 -0.00787154
-7.00277e-030 -3.88773e-030 -8.83566e-031
-5.64374e-029 -7.74883e-030 -1.1807e-030
-9.59418e-030 -2.08707e-029 2.75122e-031
0.204877 0.0453966 0.0362135
0.24322 0.0879281 0.0219768
0.256215 0.198366 0.0516605
2.96296e-030 5.49504e-029 -3.39696e-029
5.60562e-017 5.33071e-017 1.3026e-017
-6.97156e-017 -4.52792e-017 -1.35125e-017
-2.27477e-029 -2.10828e-031 6.91547e-032
-1.3489e-017 -2.12635e-029 -7.24406e-029
5.21734e-017 -1.59629e-018 -5.75895e-020
0.309073 -0.000106957 0.00128407
-0.0939028 -0.265953 0.00282694
1.69957e-030 3.44821e-030 -5.65484e-032
-0.152844 -0.26451 -0.0045129
3.78173e-030 8.50375e-030 5.02934e-032
-0.0602296 -0.138174 0.00369468
-0.127425 -0.273967 -0.000662129
-0.0606469 -0.146256 0.00229192
-0.0840988 -0.152593 0.00169535
9.94991e-018 1.96327e-017 -4.71331e-019
-0.0735132 -0.139863 -0.000105809
-0.288156 -0.325434 -0.0316003
-0.269049 -0.48681 -0.0342558
-0.118784 -0.184461 -0.015968
-0.221624 -0.281958 -0.0387787
-0.287103 -0.416815 -0.033705
-0.1981 -0.273241 -0.0256854
-0.224969 -0.368585 -0.0417738
-0.133767 -0.207067 -0.0226537
-0.212863 -0.364302 -0.0305529
0.470676 0.00160945 8.45844e-005
-1.023e-028 -2.80583e-031 3.6945e-031
-4.19425e-029 -1.97414e-031 5.63348e-032
0.483827 0.00210306 -0.000744122
0.307048 0.00245479 -0.000899585
0.290165 0.00241396 0.000644374
0.490792 0.00258551 -0.00106817
4.4697e-029 -8.83379e-030 -1.10987e-028
0.401661 -0.001447 -0.00158975
0.353233 -0.000374606 -0.000336742
-1.83715e-029 2.68707e-032 1.71984e-032
-4.86874e-029 1.41562e-032 -7.20023e-033
-9.08988e-029 4.72066e-032 5.28019e-032
1.39687e-029 5.01058e-029 8.82962e-029
0.294672 -0.000462033 -0.000208257
6.40002e-017 3.17668e-019 -3.41812e-020
0.322987 0.000662761 0.000444743
-3.02999e-017 -1.00815e-019 2.95922e-020
0.294767 -7.7403e-005 -0.000409527
-2.75237e-029 4.98685e-032 -3.2735e-032
-5.33786e-029 5.80796e-032 -1.14851e-031
0.512668 -0.000581389 0.000266915
-9.22287e-029 1.24735e-031 -2.23522e-031
8.38544e-017 -2.09254e-019 4.16245e-019
0.386968 -0.000885602 0.000775897
-6.6147e-017 3.72594e-019 -1.68578e-019
0.397707 -0.000723543 0.0019802
3.14162e-017 5.69084e-020 2.07925e-019
0.377309 -0.00226624 0.000652073
0.469762 0.00114928 -0.000621698
-1.02084e-028 4.29989e-032 1.04572e-031
0.539402 8.69261e-005 -7.08674e-005
0.344343 0.000249891 -0.000346014
0.472731 0.00199018 0.000424443
0.376418 -0.00155229 0.00111175
0.546042 0.00197083 -0.000950286
0.383058 0.000804245 -0.000344102
1.35822e-029 1.30097e-031 -1.0694e-031
-0.347482 -0.00529445 0.00475539
8.41117e-017 9.13174e-019 -3.27641e-018
-0.462679 -0.00486205 0.00487718
-0.755006 -0.0106595 0.0046051
1.31396e-030 -6.34881e-029 4.24759e-030
1.53053e-031 -1.17228e-028 7.66415e-030
-0.00981064 0.693858 -0.0447346
0.000122748 0.703648 -0.045509
-0.0121967 0.486952 -0.0331322
1.39848e-018 -9.57149e-017 6.48942e-018
-0.00809238 0.582596 -0.0381667
0.00062328 0.516567 -0.0040943
0.0119515 0.278256 0.0018952
0.00408877 0.522328 -0.0102557
0.000101488 0.354317 -0.00109176
0.00907672 0.424526 -0.000344319
0.00327278 0.521399 -0.00737413
0.000299915 0.439497 -0.00152947
0.00829922 0.416152 -0.00369851
0.00511141 0.342851 0.00026758
0.00182812 0.45393 -0.00450509
0.00721637 0.267801 0.00584611
0.00181348 0.376507 0.00465295
0.000909071 0.285682 0.00267825
8.91475e-029 1.65646e-030 7.16409e-031
1.49873e-028 3.0145e-030 1.04978e-030
2.67683e-029 3.11615e-031 1.30489e-031
-0.63123 -0.00809357 -0.00371206
-0.595168 -0.00887275 -0.00594588
-0.59486 -0.0100201 -0.00361197
-1.3596e-016 3.43986e-019 -1.91443e-018
-1.60608e-016 -2.95749e-018 -1.37498e-018
-1.52601e-016 -3.1305e-018 -1.87099e-018
7.76314e-031 2.94203e-030 -6.45984e-032
-0.164706 -0.492713 -0.00420948
4.34056e-030 2.16605e-029 1.42982e-031
1.63314e-030 8.01637e-030 -1.44489e-031
-0.0952795 -0.358971 0.00659063
4.70785e-030 -4.43504e-030 -2.84549e-029
-4.30558e-017 -2.11234e-016 7.4432e-018
-0.0852798 -0.361694 0.000976053