# vtk DataFile Version 2.0 
output.vtk, Created by Freefem++, via gregorio
ASCII
DATASET UNSTRUCTURED_GRID
POINTS 7451 double
-3.79965 2.23652 0.040848
-4.13429 2.05574 0.276253
-4.09122 2.24524 0.070091
-4.01836 2.27766 0.330071
-3.96697 2.14613 0.158551
-3.94543 2.24088 0.0554695
-3.90901 2.25709 0.185459
-4.11275 2.15049 0.173172
-4.07633 2.1667 0.303162
-4.05479 2.26145 0.200081
-4.81817 0.732763 -0.840268
-4.76136 0.37264 -0.736193
-5.12328 0.495929 -0.550642
-4.73872 0.559667 -0.434419
-4.78977 0.552702 -0.788231
-4.97072 0.614346 -0.695455
-4.77845 0.646215 -0.637344
-4.94232 0.434285 -0.643417
-4.75004 0.466153 -0.585306
-4.931 0.527798 -0.49253
-7.58244 -0.891248 -0.453516
-8 -0.559587 0.124298
-7.26059 -0.264226 0.250847
-7.58828 -0.999993 0.00381
-7.79122 -0.725418 -0.164609
-7.42152 -0.577737 -0.101334
-7.58536 -0.94562 -0.224853
-7.6303 -0.411906 0.187573
-7.79414 -0.77979 0.064054
-7.42444 -0.632109 0.127328
-5.46564 0.048234 0.998836
-5.51396 -0.351144 0.936321
-5.02851 -0.125769 0.598961
-5.56665 -0.148801 0.504295
-5.4898 -0.151455 0.967578
-5.24708 -0.0387675 0.798898
-5.51614 -0.0502835 0.751565
-5.27124 -0.238457 0.767641
-5.5403 -0.249972 0.720308
-5.29758 -0.137285 0.551628
-4.20269 -2.80441 0.102764
-3.63085 -2.57461 -0.287529
-4.13183 -2.29387 0.255347
-4.14432 -2.47254 -0.273935
-3.91677 -2.68951 -0.0923825
-4.16726 -2.54914 0.179055
-4.1735 -2.63848 -0.0855855
-3.88134 -2.43424 -0.016091
-3.88759 -2.52358 -0.280732
-4.13807 -2.38321 -0.009294
-6.25062 -0.085247 0.575431
-6.51584 -0.423084 -0.15939
-6.46019 0.447486 0.293263
-6.75561 -0.174737 0.413139
-6.38323 -0.254165 0.20802
-6.35541 0.181119 0.434347
-6.88822 -0.343655 0.0457285
-6.86039 0.09163 0.272055
-6.48801 0.012201 0.0669365
-4.88162 0.371746 0.655425
-4.51246 -0.112716 0.623981
-4.65723 0.09269 0.995695
-4.69704 0.129515 0.639703
-4.95507 0.122989 0.627193
-4.76942 0.232218 0.82556
-4.77049 -0.119243 0.611471
-4.58484 -0.010013 0.809838
-4.84287 -0.0165395 0.797328
-3.75099 1.20677 0.090288
-3.64118 0.745776 0.266863
-4.09568 0.790235 0.315934
-3.78936 1.07086 0.69071
-3.69609 0.976272 0.178575
-3.92333 0.998502 0.203111
-3.77017 1.13882 0.390499
-3.86843 0.768006 0.291399
-3.71527 0.908319 0.478787
-3.94252 0.930549 0.503322
-2.18572 0.40145 0.915881
-1.75478 0.245881 0.526965
-1.94554 -0.013967 0.999902
-1.76886 0.356252 0.93439
-1.97025 0.323665 0.721423
-2.06563 0.193741 0.957891
-1.97729 0.378851 0.925135
-1.85016 0.115957 0.763433
-1.76182 0.301067 0.730678
-1.8572 0.171143 0.967146
-5.06116 0.824959 0.710182
-4.88551 0.773989 0.80113
-4.92155 0.772883 0.437198
-5.01596 0.602336 0.857802
-4.97333 0.799474 0.755656
-4.99135 0.798921 0.57369
-5.03856 0.713647 0.783992
-4.90353 0.773436 0.619164
-4.95074 0.688163 0.829466
-4.96876 0.687609 0.6475
-2.34262 2.51752 0.051733
-2.4672 2.85727 -0.311185
-2.29554 2.81673 0.086134
-2.65762 2.74748 0.16058
-2.40491 2.6874 -0.129726
-2.31908 2.66712 0.0689335
-2.50012 2.6325 0.106157
-2.38137 2.837 -0.112526
-2.56241 2.80238 -0.0753025
-2.47658 2.7821 0.123357
-3.50303 -3.76846 -0.636668
-3.49422 -3.29308 -1.15018
-3.31427 -3.71149 -1.25136
-2.90724 -3.34218 -0.858121
-3.49863 -3.53077 -0.893424
-3.40865 -3.73997 -0.944014
-3.20514 -3.55532 -0.747394
-3.40425 -3.50228 -1.20077
-3.20073 -3.31763 -1.00415
-3.11076 -3.52683 -1.05474
-4.0054 2.49156 -0.125899
-3.5956 2.50054 -0.194198
-3.83412 2.54803 0.0159
-3.8005 2.49605 -0.160049
-3.90253 2.36404 -0.0425255
-3.91976 2.5198 -0.0549995
-3.69763 2.36853 -0.076675
-3.71486 2.52428 -0.089149
-3.81689 2.39228 0.028374
-3.73452 -3.68531 -1.05781
-3.52439 -3.6984 -1.15459
-3.61437 -3.4892 -1.104
-3.61877 -3.72688 -0.84724
-6.37864 0.944563 0.328331
-6.25891 0.813305 0.581838
-6.65332 0.772267 0.635298
-6.31878 0.878934 0.455085
-6.41941 0.696025 0.310797
-6.51598 0.858415 0.481815
-6.35955 0.630395 0.43755
-6.45612 0.792786 0.608568
-6.55675 0.609877 0.46428
1.62066 -0.841518 -0.540229
1.89324 0.238579 -0.195511
2.01627 -0.690819 -0.723027
2.25185 -0.211859 0.261412
1.75695 -0.30147 -0.36787
1.81846 -0.766169 -0.631628
1.93625 -0.526689 -0.139408
1.95475 -0.22612 -0.459269
2.07254 0.01336 0.0329505
2.13406 -0.451339 -0.230807
-2.56949 2.06853 0.305158
-2.91403 1.60744 0.564909
-3.02709 2.08175 0.021586
-2.87501 2.07662 0.630995
-2.74176 1.83799 0.435033
-2.79829 2.07514 0.163372
-2.72225 2.07258 0.468077
-2.97056 1.8446 0.293247
-2.89452 1.84203 0.597952
-2.95105 2.07919 0.32629
-5.39985 0.358755 0.933432
-5.34934 0.453264 0.543553
-5.56264 0.558471 0.829524
-5.70805 0.297641 0.954678
-5.37459 0.40601 0.738492
-5.48124 0.458613 0.881478
-5.55395 0.328198 0.944055
-5.45599 0.505868 0.686538
-5.52869 0.375452 0.749116
-5.63535 0.428056 0.892101
-4.17913 0.323834 -0.696515
-4.36183 0.516245 -0.417662
-4.60784 0.019305 -0.528365
-4.46586 0.364911 -0.72315
-4.27048 0.42004 -0.557088
-4.39349 0.17157 -0.61244
-4.3225 0.344372 -0.709832
-4.48483 0.267775 -0.473013
-4.41384 0.440578 -0.570406
-4.53685 0.192108 -0.625757
-5.9377 0.438799 -0.558905
-5.87927 0.529091 -0.848565
-6.25926 0.555743 -0.831354
-6.07929 0.245277 -0.969453
-5.90849 0.483945 -0.703735
-6.09848 0.497271 -0.695129
-6.00849 0.342038 -0.764179
-6.06927 0.542417 -0.839959
-5.97928 0.387184 -0.909009
-6.16928 0.40051 -0.900404
-3.64743 2.72944 0.180305
-3.74077 2.63873 0.0981025
-3.72354 2.48298 0.110576
-3.62151 2.61499 -0.0069465
-3.98168 0.388062 0.141859
-3.76543 0.320245 0.603448
-3.81143 0.566919 0.204361
-3.70331 0.533011 0.435156
-4.03868 0.589149 0.228897
-3.87356 0.354154 0.372653
-3.93055 0.55524 0.459691
-6.17342 0.027823 -0.593282
-6.59748 0.255766 -0.966739
-6.35964 0.547779 -0.240473
-6.21634 0.291783 -0.712318
-6.42837 0.405755 -0.899047
-6.30945 0.551761 -0.535914
-6.38545 0.141794 -0.78001
-6.26653 0.287801 -0.416878
-6.47856 0.401772 -0.603606
-5.98474 0.742767 -0.66955
-5.96122 0.590783 -0.614227
-6.122 0.649255 -0.750452
-5.93201 0.635929 -0.759057
-5.86659 0.345457 -0.129882
-5.96054 -0.099592 -0.035866
-6.02 0.18664 -0.361582
-6.11312 0.446618 -0.185177
-5.91357 0.122933 -0.082874
-6.06698 -0.0358845 -0.314574
-6.16009 0.224094 -0.13817
-1.10421 0.363269 -0.931684
-0.773878 0.737644 -0.67519
-0.520452 0.269543 -0.962988
-0.384634 0.008888 -0.353445
-0.939043 0.550457 -0.803437
-0.812329 0.316406 -0.947336
-0.74442 0.186079 -0.642564
-0.647165 0.503594 -0.819089
-0.579256 0.373266 -0.514317
-0.452543 0.139215 -0.658216
-2.85287 -3.00249 -1.21636
-3.23054 -2.92385 -1.196
-3.06719 -3.3306 -1.25351
-2.88006 -3.17233 -1.03724
-3.06889 -3.13301 -1.02706
-2.98722 -3.33639 -1.05581
-3.0417 -2.96317 -1.20618
-2.96003 -3.16654 -1.23493
-3.14886 -3.12722 -1.22475
-3.38618 -2.05134 -0.098565
-2.37808 -2.56123 -0.134541
-2.49252 -2.47812 0.422472
-2.41131 -1.89586 0.044632
-2.88213 -2.30628 -0.116553
-2.93935 -2.26473 0.161954
-2.89875 -1.9736 -0.0269665
-2.4353 -2.51967 0.143966
-2.39469 -2.22855 -0.0449545
-2.45192 -2.18699 0.233552
-1.85713 -0.413967 0.42138
-1.65927 -0.390905 0.920431
-1.2503 -0.077569 0.384148
-1.80595 -0.084043 0.474172
-1.70702 -0.072512 0.723698
-1.50254 0.084156 0.455557
-1.7582 -0.402436 0.670905
-1.55371 -0.245768 0.402764
-1.45478 -0.234237 0.652289
-2.09043 2.55218 0.167395
-2.0659 2.66009 -0.048555
-2.19298 2.68445 0.126765
-2.18072 2.73841 0.0187895
-2.07816 2.60614 0.05942
-2.21652 2.53485 0.109564
-2.20426 2.58881 0.001589
-4.01665 2.44382 0.136481
-3.97233 2.67361 0.084512
-3.92539 2.49592 0.0761905
-3.99449 2.55872 0.110496
-4.01103 2.46769 0.005291
-3.90323 2.61082 0.050206
-3.98887 2.58259 -0.0206935
-3.92754 1.80484 -0.220103
-4.28096 1.83407 -0.225431
-4.13592 1.88983 -0.461486
-4.146 2.03152 -0.278406
-4.10425 1.81945 -0.222767
-4.03173 1.84734 -0.340795
-4.03677 1.91818 -0.249254
-4.20844 1.86195 -0.343458
-4.21348 1.9328 -0.251918
-4.14096 1.96068 -0.369946
-4.04038 -5 0.949212
-3.62468 -5 1.26221
-3.84559 -4.54287 1.07336
-3.71487 -5 0.728948
-3.83253 -5 1.10571
-3.94299 -4.77144 1.01129
-3.87763 -5 0.83908
-3.73513 -4.77144 1.16779
-3.66977 -5 0.99558
-3.78023 -4.77144 0.901156
-1.37334 0.812082 -0.583544
-0.975724 0.961208 -0.275823
-1.19336 -0.166381 -0.273753
-1.17453 0.886645 -0.429683
-1.07361 0.774863 -0.629367
-1.28335 0.32285 -0.428648
-0.874801 0.849426 -0.475506
-1.08454 0.397413 -0.274788
-0.983618 0.285631 -0.474471
-3.83515 -1.82017 -0.741539
-3.34976 -1.58414 -0.592596
-3.50394 -2.07825 -1.02313
-3.59245 -1.70215 -0.667067
-3.66955 -1.94921 -0.882335
-3.61067 -1.93575 -0.420052
-3.42685 -1.83119 -0.807863
-3.36797 -1.81774 -0.345581
-3.44506 -2.06479 -0.560848
-2.72946 0.769161 0.094533
-2.75119 0.681139 -0.326037
-2.98528 1.02631 -0.281501
-3.08113 0.734324 -0.34324
-2.74032 0.72515 -0.115752
-2.85737 0.897737 -0.093484
-2.90529 0.751742 -0.124353
-2.86823 0.853726 -0.303769
-2.91616 0.707731 -0.334639
-3.03321 0.880319 -0.31237
-2.94023 -2.47675 -0.674772
-3.14499 -2.03044 -0.633684
-3.22209 -2.2775 -0.848951
-3.16321 -2.26404 -0.386669
-3.03914 -4.25341 0.579285
-2.64287 -3.80807 0.20828
-2.47531 -4.18593 0.714333
-2.97264 -3.41482 0.618231
-2.84101 -4.03074 0.393783
-2.75723 -4.21967 0.646809
-3.00589 -3.83412 0.598758
-2.55909 -3.997 0.461307
-2.80776 -3.61144 0.413255
-2.72397 -3.80037 0.666282
-2.39684 -0.595487 -0.803365
-1.98884 -0.54749 -0.836812
-2.24172 -0.466498 -0.098067
-2.21295 -0.01831 -0.514797
-2.19284 -0.571489 -0.820088
-2.31928 -0.530992 -0.450716
-2.3049 -0.306899 -0.659081
-2.11528 -0.506994 -0.46744
-2.1009 -0.2829 -0.675804
-2.22734 -0.242404 -0.306432
-3.36239 -4.55484 -1.31864
-3.11171 -4.25429 -0.873787
-2.86199 -4.55394 -1.36046
-2.79118 -5 -0.96439
-3.23705 -4.40456 -1.09621
-3.11219 -4.55439 -1.33955
-3.07678 -4.77742 -1.14151
-2.98685 -4.40411 -1.11712
-2.95144 -4.62714 -0.919088
-2.82658 -4.77697 -1.16243
-3.88203 2.65205 -0.416886
-3.48121 2.84727 -0.340672
-3.82273 3 -0.474998
-3.72541 2.76868 -0.627028
-3.68162 2.74966 -0.378779
-3.85238 2.82603 -0.445942
-3.80372 2.71037 -0.521957
-3.65197 2.92364 -0.407835
-3.60331 2.80798 -0.48385
-3.77407 2.88434 -0.551013
[...]
POINT_DATA 7451
 
FIELD FieldData 2
velocity 3 7451 double
-1.99744 -5.88999 0.0856919
2.38792e-029 5.63648e-029 -2.74583e-030
7.71078e-030 2.15319e-029 -5.10113e-031
2.06692e-029 5.67903e-029 -2.50669e-030
-1.3788 -3.43681 0.138267
-1.26075 -3.51501 0.0842991
-1.35859 -3.95923 0.156247
-3.24437e-017 -7.92261e-017 3.55357e-018
9.5517e-017 2.36185e-016 -1.58119e-017
3.84516e-030 -1.52497e-029 -1.49485e-030
3.32097e-029 1.81733e-029 4.07266e-031
-1.41324 -0.726975 -0.0343714
-2.15451 -0.711453 -0.00716787
-2.55538 -1.69563 -0.0551618
-0.852953 -0.448633 -0.00316882
-1.1376 -0.46797 0.00688945
-1.57244 -0.949553 -0.0283932
-1.8539 -0.764082 -0.0124682
-2.07512 -1.26726 -0.0407707
-2.37382 -1.14159 -0.0281902
3.11292e-028 -6.35604e-031 2.83929e-031
-2.75815 0.021628 -0.00197582
-3.43844 0.000113004 0.000164679
1.82464e-028 -6.28496e-031 2.21879e-031
-1.84312 0.00637558 -0.0035511
-2.74586 -0.00278001 -0.0105256
-4.57674e-016 4.26441e-019 -1.67041e-018
-3.21166 0.00281386 -0.000327846
-1.62406 0.0198551 -0.00524678
-2.46571 0.00609054 -0.00213842
1.08064e-028 1.37956e-029 2.91266e-031
7.21569e-029 5.61736e-030 1.26936e-030
-2.2242 -0.53275 -0.0843054
-2.84561 -0.225756 -0.0217011
-3.78481e-016 -2.49035e-017 -2.01355e-018
-1.4348 -0.211241 -0.016581
-1.78426 -0.125041 -0.0175338
-1.38182 -0.138762 -0.0346399
-1.72398 -0.0870267 -0.0198456
-2.57184 -0.353498 -0.045221
1.67113e-029 2.30646e-028 -2.07999e-030
-0.110985 -1.87703 -0.0677358
1.69417e-029 2.73177e-028 -2.12704e-030
3.85811e-030 4.71976e-029 1.49879e-030
-0.108957 -1.2401 -0.0132126
2.82476e-016 2.83629e-015 -9.52974e-018
1.9982e-017 1.92857e-016 2.69381e-018
-0.113253 -1.37239 -0.0150309
-0.109466 -1.27094 -0.0426203
2.68914e-016 2.74148e-015 3.82455e-017
-2.70001 -0.0470631 -0.0104897
-3.17149 -0.0276196 -0.00382186
-2.90591 -0.038399 -0.00792943
-3.23001 -0.0105957 -0.00624334
-3.56139 -0.0504407 -0.0111447
-3.14976 -0.0504051 -0.0115723
-3.49888 -0.00900812 -0.00728136
-3.66025 -0.0105567 -0.00573887
-3.91822 -0.0482131 -0.00658679
-1.94131 -1.0516 0.0714837
-1.48069 -1.15566 -0.214314
5.85531e-029 3.96339e-029 1.07544e-030
-1.9422 -1.22967 -0.0476599
-2.22049 -0.831682 -0.0146137
-1.05714 -0.737189 0.0408112
-1.92022 -0.795223 -0.138505
-1.04715 -0.840124 -0.0791563
-1.28259 -0.534402 -0.0493545
-3.30632 -7.0804 -0.00392721
-1.56895 -6.48337 -0.127043
-2.75712 -4.64986 0.113455
-1.9794 -5.31966 0.0710886
-2.57012 -6.90692 -0.108661
-3.07438 -5.90166 0.0743014
-2.98401 -6.61741 0.0573722
-2.3202 -5.64231 -0.00721831
-2.15344 -6.35484 -0.123713
-2.45558 -5.23985 0.145038
-6.50031e-029 1.98871e-029 -4.3351e-030
1.06155 -0.101832 0.0182211
-6.40128e-029 1.67185e-029 4.41882e-031
-1.30293e-029 5.48251e-031 -2.62018e-031
0.63197 -0.0850721 0.0236774
2.45295e-016 -2.84796e-017 1.33892e-017
1.05648e-017 -9.52739e-019 2.32836e-019
0.647287 -0.064252 0.0221714
0.5968 -0.0287899 0.000816273
-2.07631e-016 1.22619e-017 -4.03934e-018
9.60226e-017 5.13825e-017 -8.72632e-018
1.0345e-029 6.73905e-030 -8.6162e-031
-1.98257 -1.13514 0.124885
1.06202e-029 6.04794e-030 -7.13177e-031
4.90287e-017 3.0519e-017 -5.30505e-018
-1.10832 -0.611633 0.0868998
3.67566e-016 2.02923e-016 -4.94434e-017
-1.13428 -0.734847 0.110939
5.81208e-016 3.97511e-016 -5.29966e-017
-1.18562 -0.675095 0.0868795
-0.574213 -4.13695 -0.0817484
-0.363756 -5.35974 -0.14025
-0.216856 -4.098 -0.0284069
-0.812976 -7.63338 -0.0712604
-0.490673 -5.01698 -0.0799796
-0.396561 -4.12804 -0.0592257
-0.736948 -6.1513 -0.0879786
-0.316643 -5.05922 -0.0855007
-0.621344 -6.94295 -0.0925435
-0.522024 -6.22372 -0.046891
-0.0623492 -1.72289 -0.0898344
3.97106e-030 1.57418e-028 1.09991e-029
2.10949e-030 1.37998e-028 1.00371e-029
0.014334 -1.83032 -0.128491
-0.0427298 -1.24783 -0.0931128
-0.0373183 -1.28406 -0.096058
-0.0277423 -1.95501 -0.122496
-7.8571e-031 -7.68596e-029 -3.17368e-030
-0.016414 -1.27688 -0.0986409
-0.00950922 -1.16444 -0.092963
1.73289e-029 6.74183e-029 -5.0957e-031
-1.57522 -7.19159 0.003656
-0.879532 -4.20337 0.0139852
-1.09729 -4.6338 0.0402017
-1.10124 -3.64083 0.0238768
-0.53451 -2.27007 0.00340542
-1.861 -6.69302 0.0285676
-1.35131 -6.13668 0.0212642
-1.42044 -5.07294 0.0489555
1.69487e-030 3.90528e-029 2.7219e-030
2.7504e-017 7.56467e-016 6.44029e-017
-2.64081e-017 -6.48356e-016 -5.52573e-017
-0.0511241 -1.15248 -0.0829567
3.40635e-029 5.61389e-031 7.95644e-032
4.50128e-029 6.57478e-031 1.64647e-031
5.88548e-029 6.27296e-031 2.91635e-031
2.42996e-016 5.12681e-018 9.58689e-019
-1.75497 -0.0427209 -0.00503604
-2.55786e-029 -5.26278e-030 -2.54646e-030
-1.72393 -0.0192225 -0.00692159
2.82601e-016 -5.6191e-019 1.34865e-018
-1.75265 -0.017892 -0.0067004
-4.24549e-028 1.20825e-030 -1.11425e-031
1.36556 -0.000900146 0.00140123
-1.584e-028 3.32533e-031 -3.43926e-031
1.33116 -0.00505772 0.00319686
1.20271 -0.00596625 0.00114821
-1.98107e-016 6.45306e-019 -7.21779e-019
1.09793 -0.00262597 0.00295686
1.14888 -0.000400466 0.00315594
1.49598 -0.0042293 0.0039563
1.15904 -0.00508664 0.00443962
-1.34557 -5.23387 -0.266831
-1.8787 -5.56969 -0.579399
-2.492 -8.43441 -0.115847
-1.50725 -6.42381 -0.297098
-1.7526 -5.76673 -0.436371
-2.07442 -7.48682 -0.241398
-1.53469 -6.14411 -0.340974
-2.59898 -7.94842 -0.349626
-1.75874 -6.06409 -0.440733
-2.27889 -8.10366 -0.273971
1.05066e-029 1.57031e-030 -2.77791e-031
-2.24726 -0.499633 0.0484351
2.25153e-029 1.89288e-030 -4.06134e-031
9.78205e-029 7.00297e-030 -4.54587e-031
-1.29822 -0.194343 0.0402121
-3.44032e-016 -2.69445e-017 1.19067e-017
4.76667e-016 1.81275e-017 -1.29356e-017
-1.25468 -0.167414 0.0334712
-1.30435 -0.111718 0.0241405
-7.77251e-017 -1.10622e-018 2.40665e-018
-1.05978 -1.97839 -0.0942152
-2.37198 -2.8539 -0.0941367
-1.96604 -1.24183 -0.00803994
-1.33538 -1.23959 -0.0689251
-1.75863 -2.59027 -0.084201
-1.52953 -1.68956 -0.0477346
-1.23639 -1.58882 -0.0822002
-2.15926 -2.01116 -0.0573255
-1.9327 -2.14555 -0.0838219
-1.73667 -1.3573 -0.0536289
-2.08231 -0.0492381 0.00618066
1.12615e-029 1.04092e-031 -4.33384e-032
9.77191e-029 1.15661e-030 -5.73704e-031
4.56306e-029 5.64457e-031 -1.12711e-031
-1.15821 -0.0087977 0.00699692
-1.14561 -0.0202755 0.0124687
-1.24953 -0.0116977 0.00884095
-8.41098e-016 -2.96708e-018 1.09082e-017
-4.04522e-016 1.22063e-018 5.66104e-018
-3.74994e-029 -3.26673e-030 6.51575e-030
-0.967446 -6.53986 0.0625427
-0.959194 -5.57396 0.0385252
-1.43952 -6.24472 0.0565193
-1.3321 -7.21818 0.0191385
-1.70119 -4.19307 -0.0973271
-0.349941 -4.30621 0.167878
-1.61995 -5.3046 -0.0932509
-0.924983 -5.39918 -0.0200887
-2.31394 -4.56688 -0.013028
-1.12741 -4.31249 -0.0369317
-1.69074 -4.65975 0.00999097
-2.64314 -0.0379929 0.0014262
-1.26305e-016 3.60712e-019 3.20601e-019
-2.64743 -0.030516 0.00924123
-1.70918 -0.0247418 0.0120268
-9.15606e-029 -4.4123e-030 7.56635e-030
-1.71713 -0.0183388 0.0180674
-1.55957 -0.0255274 0.00671233
-3.02698 -0.0440577 0.00965138
-1.9755 -0.00879048 0.0124075
1.80977e-029 3.2268e-031 -4.24446e-032
-1.17247 -0.0212311 0.0096263
-2.70893e-016 -7.4996e-018 8.43979e-018
-3.58871e-016 -1.50553e-018 3.76618e-018
-3.51223 -0.187067 0.000973386
-3.82912 -0.147709 -0.0126199
-3.35721 -0.0992562 -0.0027156
-3.13096 -0.0753715 0.00630602
-3.84953 -0.182459 -0.00478796
-3.57364 -0.0975144 -0.00792331
-3.6988 -0.0925165 0.000819561
6.05705e-017 1.12734e-018 -1.03102e-019
-1.40372e-028 -9.13096e-031 -4.91148e-032
-5.32315e-029 -5.80325e-031 1.63037e-031
1.34575 0.00487333 -0.00125104
-9.15897e-017 -1.04353e-018 1.49574e-020
3.97184e-029 -4.27946e-030 1.44038e-029
0.864213 0.0086726 -0.00577486
-9.567e-017 -1.04792e-018 3.80094e-019
0.956468 0.00250225 -0.000793853
0.876467 0.0126412 -0.00444054
-5.40621e-031 6.27432e-029 5.4867e-030
1.84845e-030 1.68766e-028 1.29463e-029
3.61912e-032 2.62635e-029 2.14871e-030
0.00803087 -1.16184 -0.0991174
-0.0122583 -1.21069 -0.103061
-9.00646e-005 -1.13234 -0.0900459
5.36103e-018 6.47201e-016 6.12543e-017
1.71815e-019 -3.06204e-016 -2.77373e-017
8.66656e-018 6.34098e-016 5.72258e-017
-0.0356087 -2.3025 -0.0438949
0.112715 -1.91053 -0.038635
0.109947 -1.97125 0.0771172
0.146457 -2.00512 0.00168199
0.0587143 -2.36281 -0.0413745
0.0500061 -2.38569 0.0216788
0.0914976 -2.45916 -0.0217718
0.112533 -2.02654 0.014291
0.122997 -1.98236 -0.0235371
0.128426 -2.08274 0.0468698
0.928635 -0.287155 -0.0714009
-7.89842e-029 3.80727e-030 1.02714e-030
1.30052 -0.0342865 -0.00578771
1.19675 -0.2148 -0.000429104
0.742133 -0.0218826 0.00542185
1.21929 -0.067191 -0.00628373
0.618986 -0.015227 -0.0321871
1.19057 -0.0877722 -0.0103488
0.831414 0.00254241 -0.00426427
-3.79258e-017 -4.94813e-016 -2.97122e-018
1.98554e-030 2.29919e-029 4.16406e-031
-0.139615 -2.13872 -0.0137923
-0.149326 -2.14797 -0.01913
-8.01638e-017 -9.93734e-016 -8.31284e-018
-0.30233 -2.32057 -0.0446296
-0.278393 -2.28209 -0.0678508
-1.37253e-016 -5.50541e-016 7.4594e-018
5.03021e-030 3.18849e-029 -2.27022e-031
-0.572394 -2.4401 0.0248194
2.35314e-016 1.23233e-015 -1.04313e-018
4.79138e-030 -2.05809e-029 1.50885e-031
-0.397252 -2.43655 -0.0154779
4.3698e-016 2.31365e-015 1.69332e-017
-2.62808 -5.1938 -0.0205041
2.019e-029 3.24372e-029 -9.38673e-032
1.10674e-029 2.07918e-029 3.16699e-031
8.47768e-030 1.643e-029 7.17947e-032
-1.69654 -2.88021 -0.00888476
-1.67665 -3.08659 -0.0519804
-1.6537 -3.14199 -0.0267544
-8.53586e-016 -1.39694e-015 -2.09809e-017
-4.81621e-015 -8.10187e-015 -6.76449e-017
-3.58168e-015 -6.45116e-015 -1.2165e-016
5.1616e-031 1.3938e-029 -5.91685e-031
8.09556e-031 4.01894e-029 -2.11471e-030
2.51351e-030 6.72579e-029 -3.97369e-030
-0.0395207 -1.11569 0.0436108
1.70071e-017 6.56914e-016 -3.24768e-017
2.63891e-018 7.38036e-017 -3.99459e-018
-0.0289288 -0.845814 0.0348739
-4.04626e-018 -1.41114e-016 2.9424e-017
-0.0264748 -1.08878 0.0549958
-0.0383939 -1.04223 0.0589278
-1.65823e-028 3.06548e-030 -2.80087e-030
-1.6713e-028 -5.88196e-031 -2.23133e-031
1.37004 -0.00597377 0.000296399
7.32251e-017 5.09234e-019 9.11948e-019
-8.10229e-017 -2.28966e-020 -8.97621e-019
1.11829 -0.00459706 0.0159307
-1.85188e-016 -1.53773e-018 -1.73442e-019
1.20026 0.0129704 0.00456157
1.08109 0.00203813 0.000994591
-2.42345e-019 -6.39045e-018 -3.61723e-019
0.0423144 -2.39495 -0.161938
7.5763e-030 3.49861e-028 2.04113e-029
-0.0115681 -1.47991 -0.101163
1.94029e-017 6.77672e-016 7.26888e-017
-0.066737 -2.10069 -0.0972978
-0.0215689 -1.42098 -0.109234
0.000154432 -2.63837 -0.112387
-0.0597246 -2.22114 -0.124502
2.24366 -4.69573 0.239119
1.93186 -3.08492 -0.421201
-0.691852 -7.04332 0.318353
0.822941 -6.06337 -0.204905
2.14936 -4.39322 -0.101552
1.00616 -6.6469 -0.110862
1.71394 -6.12451 -0.140965
1.07013 -4.92101 -0.126224
1.67264 -4.88642 -0.344292
0.25197 -6.662 0.0589084
0.0219261 -2.36755 -0.145892
-0.00367038 -2.50397 -0.145617
-0.0381088 -1.79613 -0.125223
-0.0144969 -2.54194 -0.101914
-0.000548858 -1.36451 0.0691724
0.0541939 -1.79187 0.0225019
0.0611524 -1.40826 0.0916636
0.0019051 -1.62025 0.0986441
0.0299491 -1.72882 0.0411162
0.0323528 -1.49169 0.085765
-0.00134237 -1.49866 0.0866743
0.065919 -1.68757 0.0496356
0.0345031 -1.84632 0.047759
0.045405 -1.57918 0.0992247
4.66866e-017 -3.26424e-016 -6.39798e-018
1.71529e-016 -9.2103e-018 1.25028e-018
0.941882 -1.19329 0.00427801
1.23597 -0.604451 -0.019974
3.30261e-029 -2.69861e-029 9.80428e-030
0.577432 -1.07766 0.0119141
0.665884 -0.515531 0.0222559
0.607365 -0.496061 0.0476528
0.653683 -0.270379 0.0304486
1.24426 -0.965478 -0.0080645
-5.71182e-018 -2.77415e-016 -2.04872e-017
-0.0114321 -1.73122 -0.0953811
-1.41194e-030 1.2585e-028 6.59462e-030
0.0113843 -1.45435 -0.0449095
-0.0157199 -1.05749 -0.0699784
-9.42868e-018 -4.86068e-016 -5.51568e-017
-0.0034029 -0.997923 -0.0469729
0.00241953 -1.07926 -0.0704611
0.00502444 -1.61989 -0.0660166
0.00832549 -0.893761 -0.0418151
1.23355e-029 7.4771e-029 -2.01903e-031
-0.773116 -7.15037 -0.0300341
1.15947e-029 2.45846e-028 -4.70182e-031
2.00532e-029 1.16484e-028 1.24211e-031
-0.57564 -4.4643 0.00926971
-6.32597e-016 -6.11085e-015 1.87155e-017
4.32498e-030 -5.69131e-029 8.7303e-030
-0.365982 -4.47277 -0.00786511
-0.554627 -4.39606 -0.0424555
-5.30114e-016 -5.25461e-015 -3.50432e-017
1.42093 -0.00139354 0.000288287
-6.05547e-029 5.30965e-032 -2.90583e-032
-6.28457e-029 8.92818e-032 3.94893e-032
-1.06476e-028 1.65881e-031 3.56797e-032
1.0306 0.000844763 0.000151582
1.03362 -0.000923903 -0.00110735
1.02701 -0.000190652 -0.000406459
4.29718e-029 -2.74284e-019 -2.64118e-031
3.96562e-029 -2.38112e-019 7.03328e-020
7.83061e-017 1.96306e-030 -6.83899e-032
0.35067 -1.65857 -0.0188399
0.69731 -2.75362 -0.118857
0.547928 -2.46865 0.172201
0.161706 -2.24943 -0.0540584
0.633692 -2.52669 -0.0177138
0.5085 -2.13276 0.0869394
0.210376 -2.21885 -0.0077102
0.702419 -2.88292 0.0176057
0.381235 -2.53235 -0.0809085
0.377297 -2.61494 0.0245036
-2.23197e-028 -4.44397e-031 9.3066e-032
-1.34092e-028 -4.16816e-031 2.75881e-031
-1.65133e-028 -3.88308e-031 2.75328e-031
1.3414 0.00404414 3.86558e-005
6.03011e-017 -1.57846e-021 -2.46385e-019
5.96766e-017 1.67296e-021 -6.41827e-021
1.10186 0.000825625 -0.00373789
2.8034e-018 1.96667e-020 -1.33276e-020
1.00557 0.00889231 -0.00211315
1.13501 0.00344138 -0.00485545
4.11751e-029 3.29446e-029 -4.23396e-030
-1.92758 -2.07275 0.300933
1.32873e-029 1.09674e-029 -1.91096e-030
-1.42854 -1.25475 0.203715
-1.18963 -0.773259 0.12084
3.10459e-015 2.49332e-015 -4.97885e-016
-1.94062 -1.52983 0.207468
-1.2064 -1.12373 0.214755
-1.11906 -0.782233 0.125938
-2.72961 -0.00355208 0.0165494
5.81102e-028 -4.52059e-031 -4.89643e-031
4.4739e-029 -1.44076e-031 -5.14527e-031
-2.71927 0.0108217 0.00535436
-1.84846 0.000142472 0.00560945
-1.68977 -0.0076571 0.0192057
-2.98861 0.00738375 0.00675335
-7.68882e-029 7.32533e-031 1.43376e-030
-1.57506 0.0079625 0.000641661
-1.69411 0.0162208 0.00833813
-1.11129e-028 -5.71468e-031 -1.6963e-031
-4.1003e-029 -3.18874e-031 1.8424e-031
-6.36314e-029 1.10729e-030 6.72769e-031
-1.46265e-016 -3.82861e-018 6.24018e-019
-3.92013e-018 -7.43312e-020 -3.01732e-020
0.910943 0.00505486 0.000163191
-5.41959e-017 -1.17098e-018 -5.43843e-020
0.84356 0.00670635 -0.00776814
0.91414 7.82428e-005 0.00598557
-2.36934e-028 -9.72554e-031 7.23964e-031
1.14073 0.00579064 -0.00472701
0.970811 0.00606637 -0.0050398
1.03263 -0.00155829 -0.00449154
1.49485 -0.00126839 -0.00158938
1.53161 0.00102028 0.00130929
1.36996 0.00132816 -0.00248524
-5.17581e-029 5.54271e-031 1.18586e-031
-9.66778e-029 -5.11986e-031 2.51747e-031
1.68748e-016 5.40294e-018 -1.53023e-018
1.43703e-016 3.98836e-018 -2.30429e-018
0.829369 0.00889405 -0.00439941
1.3214e-017 3.34153e-019 -1.96728e-019
0.853393 0.00261909 -0.0107088
-1.7757e-028 -9.56006e-031 2.32438e-031
1.33727 0.00791649 -0.000986085
-1.19618e-028 -6.41166e-031 4.82505e-032
0.858661 2.48494e-005 -0.000987098
-2.93786e-016 -2.76805e-018 1.0163e-018
1.07912 0.00415534 -0.000890438
0.896731 0.00550196 -0.000798076
1.40228 0.00669519 -0.000757498
0.943411 0.0136898 -0.00517002
-4.90182e-029 3.31188e-031 -4.16605e-031
-1.42764e-028 7.4409e-032 -9.76002e-031
-1.66358e-028 1.01099e-030 -7.81362e-031
1.03839e-016 -1.64876e-018 2.75223e-018
-1.11919e-016 1.95657e-018 -2.54678e-018
0.876595 -0.0109792 0.0184195
-7.28673e-017 1.13415e-018 -1.26088e-018
0.909202 -0.00933641 0.0128699
0.910423 -0.0111547 0.00869785
-3.8016e-029 7.22571e-029 6.50491e-030
0.870543 -2.06734 -0.220233
-4.41745e-029 5.78674e-029 1.25983e-029
1.32961 -1.81384 -0.221207
0.619671 -0.983647 -0.0862662
1.12357e-016 7.04288e-017 1.22909e-017
0.734225 -1.17753 -0.115016
0.607122 -0.700909 -0.154532
1.19175 -2.1619 -0.303601
0.879478 -0.946183 -0.200096
-1.53102e-029 7.33428e-030 2.61603e-030
-1.44612e-028 1.16521e-029 2.15672e-030
-1.16207e-029 4.69157e-029 2.23546e-030
0.549782 -0.0956972 -0.0800992
0.554615 -0.117437 -0.0476918
0.46225 -0.32124 -0.120566
7.94806e-030 7.80049e-030 -7.00205e-030
7.34439e-017 -9.38525e-017 -4.07987e-017
-1.21826e-016 6.50639e-017 2.92266e-017
-6.19582e-029 4.01487e-031 1.60981e-031
-4.0309e-017 -2.8218e-030 -1.15706e-029
1.55997e-016 3.0221e-018 -2.11645e-018
0.895234 0.00151619 -0.0046929
-1.77021 -6.39151 -0.0201261
3.01606e-029 8.04565e-029 2.86367e-031
-2.40865 -6.28893 0.0342457
6.75786e-029 2.0415e-028 -1.81986e-031
-1.2385 -3.52534 -0.0109303
-2.22644 -6.48343 -0.0114129
-1.24098 -3.87099 0.00600405
-1.56716 -3.82268 -0.0244199
2.14517e-016 5.25572e-016 5.95293e-018
-1.38759 -3.61038 -0.00703232
-2.43357 -7.41494 0.170519
-3.20983 -8.40354 -0.0713232
-1.76962 -4.81372 0.378931
-1.70807 -7.56454 0.291196
-2.94724 -8.24786 0.0649631
-2.15472 -6.85675 0.365636
-2.45996 -8.19222 0.098161
-1.65166 -5.91794 0.583715
-2.73078 -7.82065 0.197631
1.33605 0.00428191 0.000538479
-2.79027e-028 -1.00925e-030 8.83501e-031
-1.16546e-028 -6.18853e-031 6.97145e-032
1.36851 0.00708672 -0.000781097
0.90924 0.00629206 -0.00164298
0.866865 0.00738804 0.00192586
1.39115 0.00814409 -0.00128263
1.28325e-028 -5.90918e-031 -1.19229e-029
1.17618 -0.00229926 -0.00380755
1.04856 8.56217e-006 7.06598e-005
-5.1641e-029 -4.05023e-031 7.46988e-032
-1.34864e-028 -3.95723e-031 -1.31625e-032
-2.48527e-028 -8.76651e-031 -5.05229e-032
3.93089e-029 6.593e-030 1.11957e-029
0.881966 0.00588706 -0.00163013
1.97838e-016 1.53019e-018 -2.652e-019
0.959861 0.00549981 0.00180579
-9.13349e-017 -4.86779e-019 6.99781e-022
0.875958 0.004942 -0.000449888
-7.57577e-029 8.86255e-032 -1.68891e-032
-1.45931e-028 5.16643e-032 -2.60397e-031
1.41607 -0.00095567 -0.000209508
-2.50406e-028 4.20115e-031 -5.43051e-031
2.5197e-016 -2.26627e-019 8.96673e-019
1.13477 -0.00119402 0.0010467
-1.99231e-016 7.83411e-019 -4.11354e-019
1.16085 -0.000711724 0.00449822
9.3462e-017 1.80451e-019 5.84467e-019
1.10316 -0.00529963 0.00200733
1.32924 0.00505187 -0.00209918
-2.78114e-028 -5.53088e-031 2.5571e-031
1.51792 0.00383179 0.000670952
1.01497 0.00260411 -0.00237651
1.34365 0.00759762 0.00165148
1.10172 -0.00131404 0.00320845
1.52727 0.00834299 -0.00145649
1.12228 0.00537064 -0.000251593
4.30805e-029 3.90068e-031 -3.55715e-031
-1.1871 -0.0160795 0.01854
2.92934e-016 2.62414e-018 -1.38198e-017
-1.57155 -0.0145215 0.0169959
-2.47203 -0.0357252 0.0143006
-4.71587e-030 1.80214e-028 -1.10259e-029
-2.27337e-031 3.16131e-028 -1.97541e-029
0.0381324 -2.13508 0.119189
-0.00280787 -2.16007 0.121391
0.0465345 -1.59243 0.102401
-5.69488e-018 3.27539e-016 -2.02594e-017
0.0314048 -1.83578 0.111924
-0.00244744 -1.65188 -0.0186973
-0.0632831 -1.45953 -0.0447568
-0.0127893 -1.52874 0.00736642
-0.00144062 -1.6411 -0.0260275
-0.0389831 -1.6738 -0.0337578
-0.0120511 -1.5869 -0.00513034
-0.00191852 -1.66482 -0.028292
-0.0343241 -1.5745 -0.016364
-0.024044 -1.63536 -0.0343428
-0.00620502 -1.60371 -0.0136486
-0.0409097 -1.70189 -0.0730858
-0.00945307 -1.80251 -0.0619544
-0.00576626 -1.75222 -0.0501065
2.77421e-028 5.53846e-030 2.26451e-030
4.56805e-028 1.01055e-029 2.95855e-030
8.45478e-029 9.68212e-031 3.48564e-031
-2.1136 -0.0294852 -0.0116343
-1.98947 -0.031547 -0.0190694
-2.00001 -0.0336256 -0.0110173
-4.77196e-016 5.16719e-018 -4.90015e-018
-5.613e-016 -1.0947e-017 -4.60536e-018
-5.33738e-016 -1.14048e-017 -6.25629e-018
1.18634e-029 4.87398e-029 -1.44547e-030
-2.43725 -7.39602 0.0301988
6.64996e-029 3.29738e-028 -4.53352e-031
2.50609e-029 1.25552e-028 -3.29514e-030
-1.54432 -6.36529 0.176171
-5.35764e-030 -4.08074e-029 -1.17735e-029
-7.5403e-016 -3.98718e-015 1.58258e-016
-1.41688 -6.38409 0.0561368
-1.37223 -6.31104 0.195294
-5.61394e-016 -3.21616e-015 8.44804e-017
-0.0221304 -1.39962 -0.0414565
-0.0405239 -1.50064 -0.0468192
-0.0207738 -1.58216 -0.0626564
-0.00912452 -1.69269 -0.0313827
-2.95047e-028 -8.75592e-031 8.61121e-031
-4.93151e-029 -1.67313e-032 7.0188e-032
-1.60371e-028 -1.71804e-032 4.21772e-031
4.97183e-029 -8.94954e-030 -8.12435e-030
1.07823 0.00804533 -0.00760967
-4.40746e-017 -1.15815e-029 -8.98492e-030
0.951779 -0.00695706 -0.000218862
4.58231e-029 -7.20274e-030 -1.00001e-029
1.00188 0.00700198 -0.00048723
-1.47869 -7.97721 -0.0628587
-1.30837 -6.73232 -0.018017
-1.71294 -7.48307 -0.0346481
-1.77634 -7.05685 -0.0273678
-1.18782 -7.98438 -0.0498552
-1.14456 -7.18884 -0.00668635
-1.64803 -8.12264 -0.031639