# vtk DataFile Version 2.0 
output.vtk, Created by Freefem++, via gregorio
ASCII
DATASET UNSTRUCTURED_GRID
POINTS 7451 double
-3.79965 2.23652 0.040848
-4.13429 2.05574 0.276253
-4.09122 2.24524 0.070091
-4.01836 2.27766 0.330071
-3.96697 2.14613 0.158551
-3.94543 2.24088 0.0554695
-3.90901 2.25709 0.185459
-4.11275 2.15049 0.173172
-4.07633 2.1667 0.303162
-4.05479 2.26145 0.200081
-4.81817 0.732763 -0.840268
-4.76136 0.37264 -0.736193
-5.12328 0.495929 -0.550642
-4.73872 0.559667 -0.434419
-4.78977 0.552702 -0.788231
-4.97072 0.614346 -0.695455
-4.77845 0.646215 -0.637344
-4.94232 0.434285 -0.643417
-4.75004 0.466153 -0.585306
-4.931 0.527798 -0.49253
-7.58244 -0.891248 -0.453516
-8 -0.559587 0.124298
-7.26059 -0.264226 0.250847
-7.58828 -0.999993 0.00381
-7.79122 -0.725418 -0.164609
-7.42152 -0.577737 -0.101334
-7.58536 -0.94562 -0.224853
-7.6303 -0.411906 0.187573
-7.79414 -0.77979 0.064054
-7.42444 -0.632109 0.127328
-5.46564 0.048234 0.998836
-5.51396 -0.351144 0.936321
-5.02851 -0.125769 0.598961
-5.56665 -0.148801 0.504295
-5.4898 -0.151455 0.967578
-5.24708 -0.0387675 0.798898
-5.51614 -0.0502835 0.751565
-5.27124 -0.238457 0.767641
-5.5403 -0.249972 0.720308
-5.29758 -0.137285 0.551628
-4.20269 -2.80441 0.102764
-3.63085 -2.57461 -0.287529
-4.13183 -2.29387 0.255347
-4.14432 -2.47254 -0.273935
-3.91677 -2.68951 -0.0923825
-4.16726 -2.54914 0.179055
-4.1735 -2.63848 -0.0855855
-3.88134 -2.43424 -0.016091
-3.88759 -2.52358 -0.280732
-4.13807 -2.38321 -0.009294
-6.25062 -0.085247 0.575431
-6.51584 -0.423084 -0.15939
-6.46019 0.447486 0.293263
-6.75561 -0.174737 0.413139
-6.38323 -0.254165 0.20802
-6.35541 0.181119 0.434347
-6.88822 -0.343655 0.0457285
-6.86039 0.09163 0.272055
-6.48801 0.012201 0.0669365
-4.88162 0.371746 0.655425
-4.51246 -0.112716 0.623981
-4.65723 0.09269 0.995695
-4.69704 0.129515 0.639703
-4.95507 0.122989 0.627193
-4.76942 0.232218 0.82556
-4.77049 -0.119243 0.611471
-4.58484 -0.010013 0.809838
-4.84287 -0.0165395 0.797328
-3.75099 1.20677 0.090288
-3.64118 0.745776 0.266863
-4.09568 0.790235 0.315934
-3.78936 1.07086 0.69071
-3.69609 0.976272 0.178575
-3.92333 0.998502 0.203111
-3.77017 1.13882 0.390499
-3.86843 0.768006 0.291399
-3.71527 0.908319 0.478787
-3.94252 0.930549 0.503322
-2.18572 0.40145 0.915881
-1.75478 0.245881 0.526965
-1.94554 -0.013967 0.999902
-1.76886 0.356252 0.93439
-1.97025 0.323665 0.721423
-2.06563 0.193741 0.957891
-1.97729 0.378851 0.925135
-1.85016 0.115957 0.763433
-1.76182 0.301067 0.730678
-1.8572 0.171143 0.967146
-5.06116 0.824959 0.710182
-4.88551 0.773989 0.80113
-4.92155 0.772883 0.437198
-5.01596 0.602336 0.857802
-4.97333 0.799474 0.755656
-4.99135 0.798921 0.57369
-5.03856 0.713647 0.783992
-4.90353 0.773436 0.619164
-4.95074 0.688163 0.829466
-4.96876 0.687609 0.6475
-2.34262 2.51752 0.051733
-2.4672 2.85727 -0.311185
-2.29554 2.81673 0.086134
-2.65762 2.74748 0.16058
-2.40491 2.6874 -0.129726
-2.31908 2.66712 0.0689335
-2.50012 2.6325 0.106157
-2.38137 2.837 -0.112526
-2.56241 2.80238 -0.0753025
-2.47658 2.7821 0.123357
-3.50303 -3.76846 -0.636668
-3.49422 -3.29308 -1.15018
-3.31427 -3.71149 -1.25136
-2.90724 -3.34218 -0.858121
-3.49863 -3.53077 -0.893424
-3.40865 -3.73997 -0.944014
-3.20514 -3.55532 -0.747394
-3.40425 -3.50228 -1.20077
-3.20073 -3.31763 -1.00415
-3.11076 -3.52683 -1.05474
-4.0054 2.49156 -0.125899
-3.5956 2.50054 -0.194198
-3.83412 2.54803 0.0159
-3.8005 2.49605 -0.160049
-3.90253 2.36404 -0.0425255
-3.91976 2.5198 -0.0549995
-3.69763 2.36853 -0.076675
-3.71486 2.52428 -0.089149
-3.81689 2.39228 0.028374
-3.73452 -3.68531 -1.05781
-3.52439 -3.6984 -1.15459
-3.61437 -3.4892 -1.104
-3.61877 -3.72688 -0.84724
-6.37864 0.944563 0.328331
-6.25891 0.813305 0.581838
-6.65332 0.772267 0.635298
-6.31878 0.878934 0.455085
-6.41941 0.696025 0.310797
-6.51598 0.858415 0.481815
-6.35955 0.630395 0.43755
-6.45612 0.792786 0.608568
-6.55675 0.609877 0.46428
1.62066 -0.841518 -0.540229
1.89324 0.238579 -0.195511
2.01627 -0.690819 -0.723027
2.25185 -0.211859 0.261412
1.75695 -0.30147 -0.36787
1.81846 -0.766169 -0.631628
1.93625 -0.526689 -0.139408
1.95475 -0.22612 -0.459269
2.07254 0.01336 0.0329505
2.13406 -0.451339 -0.230807
-2.56949 2.06853 0.305158
-2.91403 1.60744 0.564909
-3.02709 2.08175 0.021586
-2.87501 2.07662 0.630995
-2.74176 1.83799 0.435033
-2.79829 2.07514 0.163372
-2.72225 2.07258 0.468077
-2.97056 1.8446 0.293247
-2.89452 1.84203 0.597952
-2.95105 2.07919 0.32629
-5.39985 0.358755 0.933432
-5.34934 0.453264 0.543553
-5.56264 0.558471 0.829524
-5.70805 0.297641 0.954678
-5.37459 0.40601 0.738492
-5.48124 0.458613 0.881478
-5.55395 0.328198 0.944055
-5.45599 0.505868 0.686538
-5.52869 0.375452 0.749116
-5.63535 0.428056 0.892101
-4.17913 0.323834 -0.696515
-4.36183 0.516245 -0.417662
-4.60784 0.019305 -0.528365
-4.46586 0.364911 -0.72315
-4.27048 0.42004 -0.557088
-4.39349 0.17157 -0.61244
-4.3225 0.344372 -0.709832
-4.48483 0.267775 -0.473013
-4.41384 0.440578 -0.570406
-4.53685 0.192108 -0.625757
-5.9377 0.438799 -0.558905
-5.87927 0.529091 -0.848565
-6.25926 0.555743 -0.831354
-6.07929 0.245277 -0.969453
-5.90849 0.483945 -0.703735
-6.09848 0.497271 -0.695129
-6.00849 0.342038 -0.764179
-6.06927 0.542417 -0.839959
-5.97928 0.387184 -0.909009
-6.16928 0.40051 -0.900404
-3.64743 2.72944 0.180305
-3.74077 2.63873 0.0981025
-3.72354 2.48298 0.110576
-3.62151 2.61499 -0.0069465
-3.98168 0.388062 0.141859
-3.76543 0.320245 0.603448
-3.81143 0.566919 0.204361
-3.70331 0.533011 0.435156
-4.03868 0.589149 0.228897
-3.87356 0.354154 0.372653
-3.93055 0.55524 0.459691
-6.17342 0.027823 -0.593282
-6.59748 0.255766 -0.966739
-6.35964 0.547779 -0.240473
-6.21634 0.291783 -0.712318
-6.42837 0.405755 -0.899047
-6.30945 0.551761 -0.535914
-6.38545 0.141794 -0.78001
-6.26653 0.287801 -0.416878
-6.47856 0.401772 -0.603606
-5.98474 0.742767 -0.66955
-5.96122 0.590783 -0.614227
-6.122 0.649255 -0.750452
-5.93201 0.635929 -0.759057
-5.86659 0.345457 -0.129882
-5.96054 -0.099592 -0.035866
-6.02 0.18664 -0.361582
-6.11312 0.446618 -0.185177
-5.91357 0.122933 -0.082874
-6.06698 -0.0358845 -0.314574
-6.16009 0.224094 -0.13817
-1.10421 0.363269 -0.931684
-0.773878 0.737644 -0.67519
-0.520452 0.269543 -0.962988
-0.384634 0.008888 -0.353445
-0.939043 0.550457 -0.803437
-0.812329 0.316406 -0.947336
-0.74442 0.186079 -0.642564
-0.647165 0.503594 -0.819089
-0.579256 0.373266 -0.514317
-0.452543 0.139215 -0.658216
-2.85287 -3.00249 -1.21636
-3.23054 -2.92385 -1.196
-3.06719 -3.3306 -1.25351
-2.88006 -3.17233 -1.03724
-3.06889 -3.13301 -1.02706
-2.98722 -3.33639 -1.05581
-3.0417 -2.96317 -1.20618
-2.96003 -3.16654 -1.23493
-3.14886 -3.12722 -1.22475
-3.38618 -2.05134 -0.098565
-2.37808 -2.56123 -0.134541
-2.49252 -2.47812 0.422472
-2.41131 -1.89586 0.044632
-2.88213 -2.30628 -0.116553
-2.93935 -2.26473 0.161954
-2.89875 -1.9736 -0.0269665
-2.4353 -2.51967 0.143966
-2.39469 -2.22855 -0.0449545
-2.45192 -2.18699 0.233552
-1.85713 -0.413967 0.42138
-1.65927 -0.390905 0.920431
-1.2503 -0.077569 0.384148
-1.80595 -0.084043 0.474172
-1.70702 -0.072512 0.723698
-1.50254 0.084156 0.455557
-1.7582 -0.402436 0.670905
-1.55371 -0.245768 0.402764
-1.45478 -0.234237 0.652289
-2.09043 2.55218 0.167395
-2.0659 2.66009 -0.048555
-2.19298 2.68445 0.126765
-2.18072 2.73841 0.0187895
-2.07816 2.60614 0.05942
-2.21652 2.53485 0.109564
-2.20426 2.58881 0.001589
-4.01665 2.44382 0.136481
-3.97233 2.67361 0.084512
-3.92539 2.49592 0.0761905
-3.99449 2.55872 0.110496
-4.01103 2.46769 0.005291
-3.90323 2.61082 0.050206
-3.98887 2.58259 -0.0206935
-3.92754 1.80484 -0.220103
-4.28096 1.83407 -0.225431
-4.13592 1.88983 -0.461486
-4.146 2.03152 -0.278406
-4.10425 1.81945 -0.222767
-4.03173 1.84734 -0.340795
-4.03677 1.91818 -0.249254
-4.20844 1.86195 -0.343458
-4.21348 1.9328 -0.251918
-4.14096 1.96068 -0.369946
-4.04038 -5 0.949212
-3.62468 -5 1.26221
-3.84559 -4.54287 1.07336
-3.71487 -5 0.728948
-3.83253 -5 1.10571
-3.94299 -4.77144 1.01129
-3.87763 -5 0.83908
-3.73513 -4.77144 1.16779
-3.66977 -5 0.99558
-3.78023 -4.77144 0.901156
-1.37334 0.812082 -0.583544
-0.975724 0.961208 -0.275823
-1.19336 -0.166381 -0.273753
-1.17453 0.886645 -0.429683
-1.07361 0.774863 -0.629367
-1.28335 0.32285 -0.428648
-0.874801 0.849426 -0.475506
-1.08454 0.397413 -0.274788
-0.983618 0.285631 -0.474471
-3.83515 -1.82017 -0.741539
-3.34976 -1.58414 -0.592596
-3.50394 -2.07825 -1.02313
-3.59245 -1.70215 -0.667067
-3.66955 -1.94921 -0.882335
-3.61067 -1.93575 -0.420052
-3.42685 -1.83119 -0.807863
-3.36797 -1.81774 -0.345581
-3.44506 -2.06479 -0.560848
-2.72946 0.769161 0.094533
-2.75119 0.681139 -0.326037
-2.98528 1.02631 -0.281501
-3.08113 0.734324 -0.34324
-2.74032 0.72515 -0.115752
-2.85737 0.897737 -0.093484
-2.90529 0.751742 -0.124353
-2.86823 0.853726 -0.303769
-2.91616 0.707731 -0.334639
-3.03321 0.880319 -0.31237
-2.94023 -2.47675 -0.674772
-3.14499 -2.03044 -0.633684
-3.22209 -2.2775 -0.848951
-3.16321 -2.26404 -0.386669
-3.03914 -4.25341 0.579285
-2.64287 -3.80807 0.20828
-2.47531 -4.18593 0.714333
-2.97264 -3.41482 0.618231
-2.84101 -4.03074 0.393783
-2.75723 -4.21967 0.646809
-3.00589 -3.83412 0.598758
-2.55909 -3.997 0.461307
-2.80776 -3.61144 0.413255
-2.72397 -3.80037 0.666282
-2.39684 -0.595487 -0.803365
-1.98884 -0.54749 -0.836812
-2.24172 -0.466498 -0.098067
-2.21295 -0.01831 -0.514797
-2.19284 -0.571489 -0.820088
-2.31928 -0.530992 -0.450716
-2.3049 -0.306899 -0.659081
-2.11528 -0.506994 -0.46744
-2.1009 -0.2829 -0.675804
-2.22734 -0.242404 -0.306432
-3.36239 -4.55484 -1.31864
-3.11171 -4.25429 -0.873787
-2.86199 -4.55394 -1.36046
-2.79118 -5 -0.96439
-3.23705 -4.40456 -1.09621
-3.11219 -4.55439 -1.33955
-3.07678 -4.77742 -1.14151
-2.98685 -4.40411 -1.11712
-2.95144 -4.62714 -0.919088
-2.82658 -4.77697 -1.16243
-3.88203 2.65205 -0.416886
-3.48121 2.84727 -0.340672
-3.82273 3 -0.474998
-3.72541 2.76868 -0.627028
-3.68162 2.74966 -0.378779
-3.85238 2.82603 -0.445942
-3.80372 2.71037 -0.521957
-3.65197 2.92364 -0.407835
-3.60331 2.80798 -0.48385
-3.77407 2.88434 -0.551013
[...]
POINT_DATA 7451
 
FIELD FieldData 2
velocity 3 7451 double
-2.06927 -6.12477 0.0946575
2.46868e-029 5.84129e-029 -2.8958e-030
7.96136e-030 2.22695e-029 -5.5612e-031
2.13892e-029 5.89002e-029 -2.63011e-030
-1.42464 -3.55794 0.1466
-1.30215 -3.63769 0.0917208
-1.40412 -4.1016 0.164106
-3.34587e-017 -8.17257e-017 3.77644e-018
9.85424e-017 2.43926e-016 -1.65732e-017
3.64773e-030 -1.56454e-029 -1.45592e-030
3.37834e-029 1.81515e-029 2.55366e-031
-1.44012 -0.717346 -0.0312646
-2.19752 -0.712981 -0.0011767
-2.61206 -1.73698 -0.0501466
-0.86606 -0.441296 0.00102819
-1.15587 -0.464222 0.0131587
-1.59879 -0.950264 -0.0201474
-1.8905 -0.761269 -0.00762848
-2.11778 -1.27758 -0.0363582
-2.42301 -1.15598 -0.0217003
3.19058e-028 -6.92318e-031 2.756e-031
-2.82853 0.0223229 -0.00198624
-3.54091 0.000548123 -1.57499e-005
1.86774e-028 -6.58296e-031 2.22063e-031
-1.88588 0.00698764 -0.003297
-2.81366 -0.00242537 -0.0106166
-4.67503e-016 4.80749e-019 -1.65748e-018
-3.3 0.00311928 -0.000297933
-1.65963 0.0204521 -0.00512333
-2.52415 0.00636787 -0.00203892
1.10675e-028 1.37336e-029 3.12062e-031
7.39425e-029 5.52318e-030 1.20963e-030
-2.2884 -0.54837 -0.0851056
-2.92562 -0.229089 -0.0215765
-3.86572e-016 -2.24922e-017 -1.37017e-018
-1.46922 -0.206985 -0.0157803
-1.82615 -0.121121 -0.0171941
-1.41595 -0.136456 -0.0329432
-1.76567 -0.084045 -0.0180326
-2.64475 -0.361205 -0.0457055
1.75563e-029 2.43605e-028 -2.15904e-030
-0.116611 -1.99434 -0.0715217
1.77994e-029 2.88846e-028 -2.21328e-030
4.01951e-030 4.93735e-029 1.55975e-030
-0.113738 -1.30263 -0.0142233
2.94882e-016 2.96473e-015 -9.10532e-018
2.07822e-017 2.007e-016 2.80385e-018
-0.118608 -1.44433 -0.0161636
-0.114024 -1.33102 -0.0443998
2.8033e-016 2.85946e-015 3.98846e-017
-2.77033 -0.0460909 -0.0102772
-3.26292 -0.0277002 -0.00464488
-2.98109 -0.0382159 -0.00828874
-3.31844 -0.00934758 -0.00605559
-3.66557 -0.0505685 -0.0111995
-3.23454 -0.04986 -0.0118782
-3.60127 -0.00910805 -0.00796102
-3.76686 -0.00955703 -0.00559069
-4.03809 -0.0482774 -0.00671496
-1.9846 -1.07512 0.0698131
-1.52282 -1.20917 -0.219004
6.00397e-029 4.04493e-029 1.07926e-030
-1.99453 -1.27313 -0.0492451
-2.27866 -0.852497 -0.0160531
-1.08045 -0.740453 0.0403167
-1.97687 -0.825819 -0.140755
-1.07403 -0.851173 -0.0782821
-1.31533 -0.536161 -0.0487866
-3.45247 -7.45286 0.000498474
-1.63893 -6.86155 -0.130464
-2.85222 -4.89276 0.122539
-2.04595 -5.54726 0.0727613
-2.68718 -7.29287 -0.11103
-3.19618 -6.21334 0.0813976
-3.10642 -6.96439 0.0624264
-2.41099 -5.9629 -0.00422884
-2.23933 -6.69447 -0.124489
-2.54197 -5.5032 0.154771
-6.57349e-029 1.97006e-029 -4.12557e-030
1.0756 -0.0962943 0.0152563
-6.53589e-029 1.64262e-029 4.16917e-031
-1.31234e-029 3.67178e-031 -1.92499e-031
0.636362 -0.075825 0.019241
2.47863e-016 -1.7509e-017 1.32137e-017
1.05938e-017 -7.43064e-019 1.28191e-019
0.655973 -0.053625 0.0215408
0.601352 -0.0214151 -0.00314351
-2.09439e-016 7.82799e-018 -3.13467e-018
9.70025e-017 5.1342e-017 -8.45036e-018
1.05104e-029 6.8157e-030 -8.48417e-031
-2.01563 -1.15894 0.125739
1.07986e-029 6.09883e-030 -6.92593e-031
4.95568e-017 3.05923e-017 -5.17579e-018
-1.12283 -0.617324 0.0853525
3.72097e-016 2.02991e-016 -4.75473e-017
-1.14977 -0.742927 0.109614
5.88865e-016 3.96748e-016 -5.11003e-017
-1.20369 -0.681545 0.0845841
-0.593917 -4.29711 -0.0906852
-0.377362 -5.54388 -0.146176
-0.224091 -4.2518 -0.0343026
-0.84513 -7.99678 -0.079875
-0.508595 -5.20911 -0.0893945
-0.409962 -4.28576 -0.0668521
-0.764142 -6.41909 -0.098329
-0.328211 -5.25032 -0.0936497
-0.645077 -7.24406 -0.102701
-0.540904 -6.48999 -0.055138
-0.0650988 -1.81851 -0.0939428
4.09136e-030 1.63265e-028 1.13503e-029
2.15949e-030 1.42204e-028 1.02871e-029
0.0146095 -1.89838 -0.132841
-0.044038 -1.28621 -0.0951393
-0.0382145 -1.32063 -0.0982136
-0.0283152 -2.04923 -0.12756
-8.0783e-031 -7.8661e-029 -3.30187e-030
-0.016118 -1.30697 -0.100866
-0.00908499 -1.18817 -0.0946341
1.79032e-029 6.97623e-029 -6.18775e-031
-1.63228 -7.48187 0.0110801
-0.908971 -4.35663 0.0181012
-1.13305 -4.79656 0.0473537
-1.13682 -3.76656 0.0299201
-0.551025 -2.34617 0.00678608
-1.92855 -6.96553 0.0362925
-1.39827 -6.37388 0.0276138
-1.46985 -5.26555 0.0555002
1.75096e-030 4.0262e-029 2.78795e-030
2.80887e-017 7.68529e-016 6.52852e-017
-2.70947e-017 -6.597e-016 -5.59769e-017
-0.0528202 -1.18883 -0.0846924
3.4771e-029 5.62233e-031 8.70765e-032
4.5952e-029 6.4234e-031 1.9073e-031
6.01163e-029 6.14764e-031 3.04102e-031
2.47213e-016 5.11324e-018 1.07868e-018
-1.7917 -0.0430864 -0.00546169
-2.60957e-029 -5.27751e-030 -2.56016e-030
-1.75994 -0.0186524 -0.00767599
2.87675e-016 -5.41724e-019 1.48584e-018
-1.79056 -0.0177271 -0.00710808
-4.34232e-028 1.21951e-030 -1.21794e-031
1.40059 -0.000699402 0.00149401
-1.61856e-028 3.18944e-031 -3.53859e-031
1.36517 -0.00535041 0.00334408
1.22982 -0.00587435 0.00112577
-2.01995e-016 6.03508e-019 -7.54498e-019
1.12129 -0.00249447 0.00312994
1.17356 -0.000173605 0.00314236
1.53547 -0.00425009 0.00411853
1.18392 -0.00502871 0.00460298
-1.39728 -5.45727 -0.282233
-1.95407 -5.82894 -0.60257
-2.60165 -8.86627 -0.127202
-1.56745 -6.71625 -0.308331
-1.82265 -6.02421 -0.457278
-2.1619 -7.84726 -0.25861
-1.59582 -6.42132 -0.35664
-2.7134 -8.33915 -0.36971
-1.82945 -6.34474 -0.458264
-2.37817 -8.50503 -0.289027
1.0708e-029 1.54481e-030 -2.58657e-031
-2.29423 -0.505894 0.0457056
2.29429e-029 1.86496e-030 -3.70089e-031
1.00033e-028 6.90263e-030 -3.82567e-031
-1.32288 -0.192095 0.0374415
-3.49742e-016 -2.53742e-017 1.09359e-017
4.85086e-016 1.53367e-017 -1.17638e-017
-1.27723 -0.166268 0.0308441
-1.3293 -0.108436 0.0219107
-7.89901e-017 -5.88728e-019 2.18663e-018
-1.07772 -1.97459 -0.098445
-2.43265 -2.96703 -0.0970947
-2.01614 -1.26965 -0.0176134
-1.35989 -1.22857 -0.0685764
-1.79781 -2.65668 -0.0894974
-1.56154 -1.70816 -0.0557864
-1.25867 -1.58085 -0.0841385
-2.21323 -2.08015 -0.0639204
-1.97501 -2.18881 -0.0853012
-1.77429 -1.36464 -0.0585472
-2.12854 -0.0465999 0.00818901
1.14791e-029 8.61057e-032 -5.53392e-032
9.98964e-029 1.08449e-030 -6.22254e-031
4.66054e-029 5.08598e-031 -1.28354e-031
-1.18068 -0.00705544 0.00822676
-1.16843 -0.019099 0.0134304
-1.27494 -0.00981089 0.00971456
-8.55877e-016 -1.90151e-018 1.16991e-017
-4.11853e-016 1.90441e-018 6.14922e-018
-3.8272e-029 -3.23104e-030 6.55181e-030
-1.00383 -6.8139 0.0656919
-0.993522 -5.79197 0.0422057
-1.49246 -6.49525 0.0614139
-1.38155 -7.51877 0.0229625
-1.75353 -4.44834 -0.103514
-0.346283 -4.56811 0.17576
-1.67917 -5.62378 -0.0963672
-0.952929 -5.7187 -0.0173852
-2.39422 -4.82669 -0.0119491
-1.15484 -4.57644 -0.0377875
-1.74426 -4.92351 0.014439
-2.71015 -0.0354995 0.00137647
-1.28867e-016 3.99632e-019 3.37655e-019
-2.71149 -0.0297524 0.0103076
-1.74647 -0.0231068 0.0127635
-9.35457e-029 -4.36227e-030 7.62371e-030
-1.75322 -0.0174582 0.0191091
-1.5937 -0.0247477 0.00684179
-3.10606 -0.042148 0.0105053
-2.02013 -0.00768687 0.0131132
1.84401e-029 3.01104e-031 -6.85414e-032
-1.1948 -0.0198507 0.0111787
-2.7557e-016 -6.94993e-018 9.11028e-018
-3.64909e-016 -1.00361e-018 4.261e-018
-3.60709 -0.188987 0.00219239
-3.94956 -0.149332 -0.0136412
-3.44932 -0.0976024 -0.00206697
-3.21125 -0.074952 0.00764068
-3.96437 -0.184318 -0.00491673
-3.67716 -0.0961522 -0.00861164
-3.80588 -0.0923976 0.00108088
6.13848e-017 1.42378e-018 -8.18507e-020
-1.42917e-028 -1.24493e-030 -1.13154e-031
-5.41761e-029 -6.32823e-031 1.66784e-031
1.37931 0.00582882 -0.00147347
-9.28263e-017 -1.37371e-018 -2.94514e-020
4.03572e-029 -4.20008e-030 1.43606e-029
0.879469 0.0104296 -0.00592908
-9.70139e-017 -1.15518e-018 3.63101e-019
0.973688 0.00356487 -0.000753995
0.892322 0.0133568 -0.00438557
-5.54379e-031 6.43403e-029 5.62596e-030
1.90368e-030 1.74721e-028 1.33803e-029
3.49196e-032 2.67483e-029 2.18236e-030
0.00811343 -1.18456 -0.100075
-0.0128404 -1.23588 -0.105179
-4.00912e-005 -1.15333 -0.0912181
5.66864e-018 6.53365e-016 6.16544e-017
1.70664e-019 -3.08353e-016 -2.77273e-017
8.96403e-018 6.39496e-016 5.7721e-017
-0.0381414 -2.48483 -0.0480901
0.118518 -2.03647 -0.0415072
0.115938 -2.10737 0.0823552
0.154284 -2.14421 0.0014776
0.0613032 -2.55624 -0.045626
0.0522226 -2.57885 0.0228286
0.0964294 -2.66378 -0.0244304
0.118884 -2.16345 0.0149577
0.129522 -2.11589 -0.0254056
0.135392 -2.22469 0.0498376
0.960868 -0.297834 -0.0691309
-8.08123e-029 3.13187e-030 8.62317e-031
1.33343 -0.029418 -0.00536067
1.22621 -0.215988 0.00122624
0.756301 -0.0100558 0.00669785
1.24393 -0.0611925 -0.00760602
0.636438 -0.00682845 -0.0290184
1.22385 -0.0851677 -0.00765859
0.850173 0.0108629 -0.00209319
-3.89452e-017 -5.1008e-016 -3.81725e-018
2.04918e-030 2.37658e-029 4.62323e-031
-0.14372 -2.21155 -0.0171713
-0.154058 -2.21889 -0.0224892
-8.24816e-017 -1.02342e-015 -9.99608e-018
-0.311759 -2.40059 -0.0495498
-0.287395 -2.35866 -0.0733459
-1.41661e-016 -5.68583e-016 8.27012e-018
5.20205e-030 3.30468e-029 -2.50392e-031
-0.591048 -2.52392 0.0279588
2.42716e-016 1.27289e-015 -2.17944e-018
4.5784e-030 -2.11749e-029 1.79364e-031
-0.409985 -2.52069 -0.0140005
4.49884e-016 2.38791e-015 1.44463e-017
-2.71519 -5.38676 -0.00543711
2.07603e-029 3.34003e-029 -2.17052e-031
1.13811e-029 2.13275e-029 2.30321e-031
8.72609e-030 1.69085e-029 1.08663e-032
-1.74543 -2.96687 0.00208471
-1.72406 -3.1687 -0.0386698
-1.70274 -3.23658 -0.0150822
-8.75455e-016 -1.4269e-015 -1.40388e-017
-4.94483e-015 -8.30238e-015 -2.73885e-017
-3.67564e-015 -6.59366e-015 -9.06536e-017
5.39169e-031 1.4594e-029 -6.20579e-031
8.48609e-031 4.22942e-029 -2.21615e-030
2.62239e-030 7.06745e-029 -4.16608e-030
-0.0414334 -1.1832 0.0459353
1.75592e-017 6.84994e-016 -3.38155e-017
2.7254e-018 7.6887e-017 -4.15542e-018
-0.0300013 -0.885302 0.0363349
-4.18325e-018 -1.47321e-016 3.06839e-017
-0.0275157 -1.14189 0.0575025
-0.0398366 -1.09207 0.0615277
-1.68201e-028 2.15767e-030 -3.32145e-030
-1.70198e-028 -9.88159e-031 -3.47016e-031
1.40764 0.000532714 -0.00033395
7.40662e-017 8.02998e-019 1.1282e-018
-8.19579e-017 -3.48138e-019 -1.09254e-018
1.13516 0.00131815 0.0189675
-1.87948e-016 -1.81338e-018 -2.57793e-019
1.22096 0.0168618 0.00603386
1.1005 0.0054551 0.00128578
-2.52511e-019 -6.6195e-018 -3.85844e-019
0.0443302 -2.50744 -0.170683
7.93052e-030 3.65819e-028 2.13795e-029
-0.0126925 -1.53318 -0.106431
2.13893e-017 6.80382e-016 7.70597e-017
-0.0697964 -2.20093 -0.104103
-0.0228996 -1.46255 -0.11377
0.000356998 -2.80511 -0.121084
-0.0622719 -2.32762 -0.131812
2.27589 -4.87398 0.250389
1.96123 -3.17314 -0.413875
-0.739473 -7.3078 0.323842
0.83038 -6.29559 -0.206321
2.18107 -4.55127 -0.0920277
1.0038 -6.90186 -0.110721
1.73776 -6.37671 -0.138774
1.08001 -5.08193 -0.12368
1.70066 -5.05188 -0.342271
0.234429 -6.91187 0.0616668
0.0222746 -2.48602 -0.152737
-0.0045735 -2.62515 -0.153694
-0.039659 -1.85029 -0.129086
-0.0158058 -2.71912 -0.109728
-0.000710147 -1.48107 0.0745419
0.0578633 -1.92989 0.0240748
0.0643961 -1.50029 0.097308
0.00201717 -1.75584 0.106414
0.0317399 -1.86631 0.0446713
0.0341871 -1.60669 0.091793
-0.00136114 -1.62462 0.0931592
0.0697812 -1.80808 0.0534035
0.0367103 -1.9908 0.0518805
0.0478396 -1.69838 0.106026
4.9251e-017 -3.29965e-016 -6.36964e-018
1.76068e-016 -6.37224e-018 -1.19903e-019
0.986356 -1.27216 0.00109963
1.27106 -0.606712 -0.0191193
3.4323e-029 -2.75013e-029 9.50449e-030
0.605303 -1.12141 0.0061725
0.689852 -0.514835 0.0175539
0.632923 -0.505273 0.0424687
0.673111 -0.262977 0.0268798
1.29334 -1.00885 -0.0117289
-5.95766e-018 -2.78114e-016 -2.04219e-017
-0.0120979 -1.80442 -0.098481
-1.45024e-030 1.2945e-028 6.69897e-030
0.0117848 -1.50431 -0.0456848
-0.0164399 -1.07736 -0.0706062
-9.88167e-018 -4.84242e-016 -5.49731e-017
-0.00353101 -1.01469 -0.0470385
0.00233484 -1.09944 -0.0709739
0.00506492 -1.68314 -0.0675056
0.00847959 -0.908114 -0.0417877
1.27391e-029 7.70436e-029 -3.30205e-031
-0.801101 -7.39878 -0.0229665
1.20475e-029 2.53091e-028 -7.23782e-031
2.07147e-029 1.19583e-028 -1.17493e-031
-0.594283 -4.59002 0.0170817
-6.51849e-016 -6.25075e-015 3.0639e-017
4.03325e-030 -5.83371e-029 8.82578e-030
-0.378224 -4.59401 -0.00168117
-0.572695 -4.502 -0.0343791
-5.4631e-016 -5.35683e-015 -2.43958e-017
1.46088 -0.00138765 0.000247172
-6.17177e-029 5.52747e-032 -3.10869e-032
-6.40641e-029 8.62904e-032 3.43948e-032
-1.08602e-028 1.67873e-031 3.05541e-032
1.05093 0.000832102 0.000169054
1.05418 -0.000905106 -0.00103277
1.04752 -0.000278915 -0.000300917
4.3739e-029 -2.757e-019 -2.60114e-031
4.03635e-029 -2.19803e-019 4.50264e-020
7.95296e-017 1.95574e-030 -6.37961e-032
0.372212 -1.78626 -0.0168821
0.749507 -2.96972 -0.129391
0.586459 -2.6723 0.184456
0.170998 -2.4065 -0.0580973
0.67807 -2.72126 -0.0192547
0.541804 -2.30797 0.0948675
0.224892 -2.37496 -0.0083182
0.756015 -3.10909 0.0180795
0.407462 -2.72746 -0.087328
0.403752 -2.81615 0.0263589
-2.28028e-028 -5.55399e-031 1.12255e-031
-1.36795e-028 -4.98655e-031 2.66042e-031
-1.68724e-028 -5.37719e-031 3.07162e-031
1.3748 0.00538261 0.000304532
6.14061e-017 -1.29402e-021 -2.44169e-019
6.08552e-017 2.35198e-021 -6.77252e-021
1.12504 0.00133969 -0.00376006
2.85606e-018 2.20571e-020 -1.37954e-020
1.02542 0.00974856 -0.00190525
1.15947 0.00450774 -0.00517571
4.1848e-029 3.37018e-029 -4.36502e-030
-1.96772 -2.1398 0.308436
1.34788e-029 1.11748e-029 -1.93764e-030
-1.45085 -1.28289 0.208817
-1.20482 -0.786954 0.122861
3.1414e-015 2.5258e-015 -5.07005e-016
-1.97531 -1.56935 0.211073
-1.22398 -1.14661 0.218313
-1.13306 -0.793464 0.12666
-2.7994 -0.00298821 0.0172071
5.96336e-028 -5.35011e-031 -5.32943e-031
4.57667e-029 -1.61373e-031 -5.29921e-031
-2.78949 0.0116254 0.00585493
-1.89189 0.00101341 0.00607428
-1.72721 -0.00725309 0.0197895
-3.06775 0.00813967 0.00734949
-7.86202e-029 7.70978e-031 1.46261e-030
-1.61186 0.00876154 0.00117604
-1.73267 0.0170901 0.00881156
-1.13575e-028 -8.75549e-031 -2.87751e-031
-4.18371e-029 -5.79411e-031 1.26072e-031
-6.53565e-029 7.85664e-031 4.68892e-031
-1.48902e-016 -4.64404e-018 3.71796e-019
-4.0105e-018 -9.44088e-020 -4.51002e-020
0.930345 0.00843045 0.0013243
-5.54019e-017 -1.55545e-018 -2.63298e-019
0.860522 0.0119212 -0.00681155
0.938279 0.00515399 0.00951146
-2.4257e-028 -1.38488e-030 8.37857e-031
1.16721 0.00757272 -0.0051259
0.993561 0.00853144 -0.00602822
1.05532 -0.000491772 -0.00501777
1.53432 0.00228161 -0.00164927
1.57171 0.00233538 0.00127056
1.40518 0.004366 -0.00291554
-5.26152e-029 5.11308e-032 1.57293e-031
-9.84618e-029 -8.7813e-031 2.59225e-031
1.71239e-016 7.1505e-018 -1.447e-018
1.45593e-016 5.34804e-018 -2.40712e-018
0.84396 0.0167042 -0.00463809
1.34154e-017 4.24721e-019 -1.8852e-019
0.868844 0.00701248 -0.0108017
-1.81048e-028 -1.00624e-030 2.40851e-031
1.37032 0.00813625 -0.00112511
-1.21903e-028 -6.60265e-031 6.32166e-032
0.87475 -6.04358e-005 -0.00127067
-2.98321e-016 -2.76286e-018 1.05918e-018
1.09939 0.00425746 -0.000925526
0.91336 0.00538443 -0.0010075
1.43694 0.00691709 -0.00106429
0.96093 0.0141328 -0.00536088
-4.99051e-029 3.41009e-031 -4.22305e-031
-1.45523e-028 7.01566e-032 -9.89254e-031
-1.6956e-028 1.01867e-030 -7.97499e-031
1.05358e-016 -1.66983e-018 2.77582e-018
-1.13534e-016 1.97646e-018 -2.57717e-018
0.892854 -0.0112475 0.0186423
-7.3944e-017 1.13645e-018 -1.27268e-018
0.926329 -0.00944175 0.0129751
0.927353 -0.0112321 0.00885313
-3.9802e-029 7.30083e-029 6.71348e-030
0.916389 -2.08946 -0.228825
-4.5859e-029 5.80287e-029 1.25661e-029
1.38792 -1.86677 -0.227614
0.645686 -0.977486 -0.0887568
1.15244e-016 6.85216e-017 1.29967e-017
0.766944 -1.17801 -0.11697
0.632443 -0.688413 -0.153687
1.24837 -2.20693 -0.312303
0.911752 -0.939218 -0.198681
-1.58812e-029 7.5e-030 2.5603e-030
-1.49353e-028 1.1599e-029 2.12091e-030
-1.21685e-029 4.95453e-029 2.182e-030
0.569876 -0.0939592 -0.0763326
0.577786 -0.11983 -0.0453932
0.483698 -0.333099 -0.119796
8.26994e-030 7.81232e-030 -6.95524e-030
7.68927e-017 -9.63473e-017 -4.08889e-017
-1.28111e-016 6.70291e-017 2.88001e-017
-6.27685e-029 -6.87498e-032 3.05947e-031
-4.07265e-017 -2.34502e-030 -1.16432e-029
1.57699e-016 4.25014e-018 -2.46159e-018
0.908227 0.00820367 -0.00642617
-1.82728 -6.56329 -0.00696927
3.09925e-029 8.15721e-029 6.05329e-032
-2.48674 -6.43925 0.0432589
6.95426e-029 2.07117e-028 -3.94934e-031
-1.27121 -3.5708 0.00103386
-2.29916 -6.64907 0.000615102
-1.27513 -3.90954 0.0153896
-1.60881 -3.86375 -0.013029
2.19276e-016 5.25062e-016 4.47891e-018
-1.42381 -3.6403 -0.00188878
-2.5354 -7.73978 0.172019
-3.36214 -8.8381 -0.0789186
-1.82819 -4.93884 0.374613
-1.78854 -7.88154 0.292413
-3.08221 -8.65105 0.0635194
-2.23841 -7.10245 0.36689
-2.57678 -8.56954 0.0938983
-1.71551 -6.11473 0.58827
-2.84788 -8.16444 0.19445
1.36883 0.00448197 0.000491367
-2.85064e-028 -1.05557e-030 9.17017e-031
-1.18846e-028 -6.29956e-031 7.83665e-032
1.40287 0.00755949 -0.000904677
0.927369 0.0065191 -0.00182141
0.883364 0.00747647 0.00192303
1.42552 0.00842098 -0.00150589
1.30801e-028 -5.8884e-031 -1.1903e-029
1.20097 -0.00242589 -0.0039485
1.06915 -9.41029e-005 4.73346e-006
-5.26033e-029 -4.38792e-031 8.40016e-032
-1.37634e-028 -4.51495e-031 1.47695e-032
-2.53873e-028 -9.19873e-031 -1.62345e-032
4.00172e-029 6.59454e-030 1.11548e-029
0.898619 0.0063049 -0.00175418
2.0095e-016 1.57063e-018 -3.07394e-019
0.978818 0.00604516 0.0015807
-9.30201e-017 -5.17269e-019 2.45023e-020
0.893155 0.00522368 -0.000668473
-7.73233e-029 9.5434e-032 -2.40345e-032
-1.49055e-028 6.40778e-032 -2.70372e-031
1.45512 -0.00109336 -0.00013031
-2.55958e-028 4.24166e-031 -5.58772e-031
2.56585e-016 -2.68585e-019 9.47325e-019
1.1585 -0.00136502 0.00118454
-2.02833e-016 8.30797e-019 -4.25829e-019
1.18572 -0.000873929 0.00471912
9.52741e-017 1.83955e-019 5.97783e-019
1.12661 -0.00556135 0.00202025
1.36234 0.00509 -0.00209158
-2.84176e-028 -5.41926e-031 2.60076e-031
1.55652 0.0037914 0.000641495
1.03568 0.0025503 -0.00224225
1.37628 0.00778294 0.00167538
1.12505 -0.00155242 0.00329911
1.56726 0.00888216 -0.00163963
1.14587 0.00541178 -0.000287199
4.39578e-029 3.68149e-031 -3.88613e-031
-1.21024 -0.0152648 0.0197705
2.98282e-016 2.48299e-018 -1.44079e-017
-1.60337 -0.0140735 0.0180607
-2.52996 -0.0341355 0.0160875
-4.9346e-030 1.90591e-028 -1.16986e-029
-2.54231e-031 3.35603e-028 -2.09905e-029
0.0398547 -2.25847 0.126962
-0.00282818 -2.28642 0.129387
0.0486198 -1.67629 0.108004
-5.90895e-018 3.44518e-016 -2.13961e-017
0.0327218 -1.93914 0.118597
-0.00266313 -1.78514 -0.0205632
-0.0664434 -1.54869 -0.0471684
-0.0141498 -1.65094 0.00788454
-0.00147372 -1.76907 -0.0280798
-0.0416919 -1.79874 -0.036558
-0.0131662 -1.71512 -0.00548913
-0.00203194 -1.79747 -0.0305018
-0.036877 -1.68783 -0.0174138
-0.0257502 -1.75368 -0.0366843
-0.00701736 -1.73098 -0.0145092
-0.0428086 -1.79876 -0.0768507
-0.0100359 -1.9367 -0.0664841
-0.00604322 -1.86445 -0.0530755
2.84674e-028 5.55534e-030 2.41219e-030
4.69303e-028 1.00107e-029 3.34685e-030
8.65268e-029 9.72782e-031 3.80528e-031
-2.16589 -0.0296193 -0.0122182
-2.03815 -0.0309567 -0.0205831
-2.0473 -0.034311 -0.0118787
-4.88916e-016 5.64993e-018 -5.4562e-018
-5.73258e-016 -1.112e-017 -4.8349e-018
-5.44895e-016 -1.1417e-017 -6.69229e-018
1.23101e-029 5.04473e-029 -1.46559e-030
-2.53693 -7.75785 0.0277103
6.91776e-029 3.43177e-028 -3.9637e-031
2.60496e-029 1.30374e-028 -3.35573e-030
-1.60273 -6.58854 0.17759
-5.65185e-030 -4.21153e-029 -1.17329e-029
-7.81699e-016 -4.10783e-015 1.60796e-016
-1.4718 -6.61345 0.055342
-1.42596 -6.54039 0.198346
-5.82418e-016 -3.31546e-015 8.5732e-017
-0.0228167 -1.45407 -0.0422843
-0.0421587 -1.57842 -0.0487128
-0.0214907 -1.64763 -0.0643505
-0.00978754 -1.79728 -0.0333243
-3.01314e-028 -9.76559e-031 8.74162e-031
-5.02517e-029 -4.60936e-032 6.51e-032
-1.63296e-028 -4.56836e-031 4.83188e-031
5.06364e-029 -8.91128e-030 -8.10087e-030
1.1001 0.00829298 -0.00761423
-4.48161e-017 -1.14857e-029 -8.97313e-030
0.970014 -0.00653154 2.95716e-005
4.66272e-029 -7.13644e-030 -9.97444e-030
1.02041 0.00871437 -0.00073146
-1.5331 -8.25301 -0.05892
-1.35349 -6.94064 -0.00620331
-1.77262 -7.71526 -0.025668
-1.8386 -7.30375 -0.0158692
-1.23218 -8.26628 -0.0414984
-1.1856 -7.46056 0.000224036
-1.71024 -8.444 -0.0251989
-1.81154e-028 6.41322e-032 -2.2009e-033