# vtk DataFile Version 2.0 
output.vtk, Created by Freefem++, via gregorio
ASCII
DATASET UNSTRUCTURED_GRID
POINTS 7451 double
-3.79965 2.23652 0.040848
-4.13429 2.05574 0.276253
-4.09122 2.24524 0.070091
-4.01836 2.27766 0.330071
-3.96697 2.14613 0.158551
-3.94543 2.24088 0.0554695
-3.90901 2.25709 0.185459
-4.11275 2.15049 0.173172
-4.07633 2.1667 0.303162
-4.05479 2.26145 0.200081
-4.81817 0.732763 -0.840268
-4.76136 0.37264 -0.736193
-5.12328 0.495929 -0.550642
-4.73872 0.559667 -0.434419
-4.78977 0.552702 -0.788231
-4.97072 0.614346 -0.695455
-4.77845 0.646215 -0.637344
-4.94232 0.434285 -0.643417
-4.75004 0.466153 -0.585306
-4.931 0.527798 -0.49253
-7.58244 -0.891248 -0.453516
-8 -0.559587 0.124298
-7.26059 -0.264226 0.250847
-7.58828 -0.999993 0.00381
-7.79122 -0.725418 -0.164609
-7.42152 -0.577737 -0.101334
-7.58536 -0.94562 -0.224853
-7.6303 -0.411906 0.187573
-7.79414 -0.77979 0.064054
-7.42444 -0.632109 0.127328
-5.46564 0.048234 0.998836
-5.51396 -0.351144 0.936321
-5.02851 -0.125769 0.598961
-5.56665 -0.148801 0.504295
-5.4898 -0.151455 0.967578
-5.24708 -0.0387675 0.798898
-5.51614 -0.0502835 0.751565
-5.27124 -0.238457 0.767641
-5.5403 -0.249972 0.720308
-5.29758 -0.137285 0.551628
-4.20269 -2.80441 0.102764
-3.63085 -2.57461 -0.287529
-4.13183 -2.29387 0.255347
-4.14432 -2.47254 -0.273935
-3.91677 -2.68951 -0.0923825
-4.16726 -2.54914 0.179055
-4.1735 -2.63848 -0.0855855
-3.88134 -2.43424 -0.016091
-3.88759 -2.52358 -0.280732
-4.13807 -2.38321 -0.009294
-6.25062 -0.085247 0.575431
-6.51584 -0.423084 -0.15939
-6.46019 0.447486 0.293263
-6.75561 -0.174737 0.413139
-6.38323 -0.254165 0.20802
-6.35541 0.181119 0.434347
-6.88822 -0.343655 0.0457285
-6.86039 0.09163 0.272055
-6.48801 0.012201 0.0669365
-4.88162 0.371746 0.655425
-4.51246 -0.112716 0.623981
-4.65723 0.09269 0.995695
-4.69704 0.129515 0.639703
-4.95507 0.122989 0.627193
-4.76942 0.232218 0.82556
-4.77049 -0.119243 0.611471
-4.58484 -0.010013 0.809838
-4.84287 -0.0165395 0.797328
-3.75099 1.20677 0.090288
-3.64118 0.745776 0.266863
-4.09568 0.790235 0.315934
-3.78936 1.07086 0.69071
-3.69609 0.976272 0.178575
-3.92333 0.998502 0.203111
-3.77017 1.13882 0.390499
-3.86843 0.768006 0.291399
-3.71527 0.908319 0.478787
-3.94252 0.930549 0.503322
-2.18572 0.40145 0.915881
-1.75478 0.245881 0.526965
-1.94554 -0.013967 0.999902
-1.76886 0.356252 0.93439
-1.97025 0.323665 0.721423
-2.06563 0.193741 0.957891
-1.97729 0.378851 0.925135
-1.85016 0.115957 0.763433
-1.76182 0.301067 0.730678
-1.8572 0.171143 0.967146
-5.06116 0.824959 0.710182
-4.88551 0.773989 0.80113
-4.92155 0.772883 0.437198
-5.01596 0.602336 0.857802
-4.97333 0.799474 0.755656
-4.99135 0.798921 0.57369
-5.03856 0.713647 0.783992
-4.90353 0.773436 0.619164
-4.95074 0.688163 0.829466
-4.96876 0.687609 0.6475
-2.34262 2.51752 0.051733
-2.4672 2.85727 -0.311185
-2.29554 2.81673 0.086134
-2.65762 2.74748 0.16058
-2.40491 2.6874 -0.129726
-2.31908 2.66712 0.0689335
-2.50012 2.6325 0.106157
-2.38137 2.837 -0.112526
-2.56241 2.80238 -0.0753025
-2.47658 2.7821 0.123357
-3.50303 -3.76846 -0.636668
-3.49422 -3.29308 -1.15018
-3.31427 -3.71149 -1.25136
-2.90724 -3.34218 -0.858121
-3.49863 -3.53077 -0.893424
-3.40865 -3.73997 -0.944014
-3.20514 -3.55532 -0.747394
-3.40425 -3.50228 -1.20077
-3.20073 -3.31763 -1.00415
-3.11076 -3.52683 -1.05474
-4.0054 2.49156 -0.125899
-3.5956 2.50054 -0.194198
-3.83412 2.54803 0.0159
-3.8005 2.49605 -0.160049
-3.90253 2.36404 -0.0425255
-3.91976 2.5198 -0.0549995
-3.69763 2.36853 -0.076675
-3.71486 2.52428 -0.089149
-3.81689 2.39228 0.028374
-3.73452 -3.68531 -1.05781
-3.52439 -3.6984 -1.15459
-3.61437 -3.4892 -1.104
-3.61877 -3.72688 -0.84724
-6.37864 0.944563 0.328331
-6.25891 0.813305 0.581838
-6.65332 0.772267 0.635298
-6.31878 0.878934 0.455085
-6.41941 0.696025 0.310797
-6.51598 0.858415 0.481815
-6.35955 0.630395 0.43755
-6.45612 0.792786 0.608568
-6.55675 0.609877 0.46428
1.62066 -0.841518 -0.540229
1.89324 0.238579 -0.195511
2.01627 -0.690819 -0.723027
2.25185 -0.211859 0.261412
1.75695 -0.30147 -0.36787
1.81846 -0.766169 -0.631628
1.93625 -0.526689 -0.139408
1.95475 -0.22612 -0.459269
2.07254 0.01336 0.0329505
2.13406 -0.451339 -0.230807
-2.56949 2.06853 0.305158
-2.91403 1.60744 0.564909
-3.02709 2.08175 0.021586
-2.87501 2.07662 0.630995
-2.74176 1.83799 0.435033
-2.79829 2.07514 0.163372
-2.72225 2.07258 0.468077
-2.97056 1.8446 0.293247
-2.89452 1.84203 0.597952
-2.95105 2.07919 0.32629
-5.39985 0.358755 0.933432
-5.34934 0.453264 0.543553
-5.56264 0.558471 0.829524
-5.70805 0.297641 0.954678
-5.37459 0.40601 0.738492
-5.48124 0.458613 0.881478
-5.55395 0.328198 0.944055
-5.45599 0.505868 0.686538
-5.52869 0.375452 0.749116
-5.63535 0.428056 0.892101
-4.17913 0.323834 -0.696515
-4.36183 0.516245 -0.417662
-4.60784 0.019305 -0.528365
-4.46586 0.364911 -0.72315
-4.27048 0.42004 -0.557088
-4.39349 0.17157 -0.61244
-4.3225 0.344372 -0.709832
-4.48483 0.267775 -0.473013
-4.41384 0.440578 -0.570406
-4.53685 0.192108 -0.625757
-5.9377 0.438799 -0.558905
-5.87927 0.529091 -0.848565
-6.25926 0.555743 -0.831354
-6.07929 0.245277 -0.969453
-5.90849 0.483945 -0.703735
-6.09848 0.497271 -0.695129
-6.00849 0.342038 -0.764179
-6.06927 0.542417 -0.839959
-5.97928 0.387184 -0.909009
-6.16928 0.40051 -0.900404
-3.64743 2.72944 0.180305
-3.74077 2.63873 0.0981025
-3.72354 2.48298 0.110576
-3.62151 2.61499 -0.0069465
-3.98168 0.388062 0.141859
-3.76543 0.320245 0.603448
-3.81143 0.566919 0.204361
-3.70331 0.533011 0.435156
-4.03868 0.589149 0.228897
-3.87356 0.354154 0.372653
-3.93055 0.55524 0.459691
-6.17342 0.027823 -0.593282
-6.59748 0.255766 -0.966739
-6.35964 0.547779 -0.240473
-6.21634 0.291783 -0.712318
-6.42837 0.405755 -0.899047
-6.30945 0.551761 -0.535914
-6.38545 0.141794 -0.78001
-6.26653 0.287801 -0.416878
-6.47856 0.401772 -0.603606
-5.98474 0.742767 -0.66955
-5.96122 0.590783 -0.614227
-6.122 0.649255 -0.750452
-5.93201 0.635929 -0.759057
-5.86659 0.345457 -0.129882
-5.96054 -0.099592 -0.035866
-6.02 0.18664 -0.361582
-6.11312 0.446618 -0.185177
-5.91357 0.122933 -0.082874
-6.06698 -0.0358845 -0.314574
-6.16009 0.224094 -0.13817
-1.10421 0.363269 -0.931684
-0.773878 0.737644 -0.67519
-0.520452 0.269543 -0.962988
-0.384634 0.008888 -0.353445
-0.939043 0.550457 -0.803437
-0.812329 0.316406 -0.947336
-0.74442 0.186079 -0.642564
-0.647165 0.503594 -0.819089
-0.579256 0.373266 -0.514317
-0.452543 0.139215 -0.658216
-2.85287 -3.00249 -1.21636
-3.23054 -2.92385 -1.196
-3.06719 -3.3306 -1.25351
-2.88006 -3.17233 -1.03724
-3.06889 -3.13301 -1.02706
-2.98722 -3.33639 -1.05581
-3.0417 -2.96317 -1.20618
-2.96003 -3.16654 -1.23493
-3.14886 -3.12722 -1.22475
-3.38618 -2.05134 -0.098565
-2.37808 -2.56123 -0.134541
-2.49252 -2.47812 0.422472
-2.41131 -1.89586 0.044632
-2.88213 -2.30628 -0.116553
-2.93935 -2.26473 0.161954
-2.89875 -1.9736 -0.0269665
-2.4353 -2.51967 0.143966
-2.39469 -2.22855 -0.0449545
-2.45192 -2.18699 0.233552
-1.85713 -0.413967 0.42138
-1.65927 -0.390905 0.920431
-1.2503 -0.077569 0.384148
-1.80595 -0.084043 0.474172
-1.70702 -0.072512 0.723698
-1.50254 0.084156 0.455557
-1.7582 -0.402436 0.670905
-1.55371 -0.245768 0.402764
-1.45478 -0.234237 0.652289
-2.09043 2.55218 0.167395
-2.0659 2.66009 -0.048555
-2.19298 2.68445 0.126765
-2.18072 2.73841 0.0187895
-2.07816 2.60614 0.05942
-2.21652 2.53485 0.109564
-2.20426 2.58881 0.001589
-4.01665 2.44382 0.136481
-3.97233 2.67361 0.084512
-3.92539 2.49592 0.0761905
-3.99449 2.55872 0.110496
-4.01103 2.46769 0.005291
-3.90323 2.61082 0.050206
-3.98887 2.58259 -0.0206935
-3.92754 1.80484 -0.220103
-4.28096 1.83407 -0.225431
-4.13592 1.88983 -0.461486
-4.146 2.03152 -0.278406
-4.10425 1.81945 -0.222767
-4.03173 1.84734 -0.340795
-4.03677 1.91818 -0.249254
-4.20844 1.86195 -0.343458
-4.21348 1.9328 -0.251918
-4.14096 1.96068 -0.369946
-4.04038 -5 0.949212
-3.62468 -5 1.26221
-3.84559 -4.54287 1.07336
-3.71487 -5 0.728948
-3.83253 -5 1.10571
-3.94299 -4.77144 1.01129
-3.87763 -5 0.83908
-3.73513 -4.77144 1.16779
-3.66977 -5 0.99558
-3.78023 -4.77144 0.901156
-1.37334 0.812082 -0.583544
-0.975724 0.961208 -0.275823
-1.19336 -0.166381 -0.273753
-1.17453 0.886645 -0.429683
-1.07361 0.774863 -0.629367
-1.28335 0.32285 -0.428648
-0.874801 0.849426 -0.475506
-1.08454 0.397413 -0.274788
-0.983618 0.285631 -0.474471
-3.83515 -1.82017 -0.741539
-3.34976 -1.58414 -0.592596
-3.50394 -2.07825 -1.02313
-3.59245 -1.70215 -0.667067
-3.66955 -1.94921 -0.882335
-3.61067 -1.93575 -0.420052
-3.42685 -1.83119 -0.807863
-3.36797 -1.81774 -0.345581
-3.44506 -2.06479 -0.560848
-2.72946 0.769161 0.094533
-2.75119 0.681139 -0.326037
-2.98528 1.02631 -0.281501
-3.08113 0.734324 -0.34324
-2.74032 0.72515 -0.115752
-2.85737 0.897737 -0.093484
-2.90529 0.751742 -0.124353
-2.86823 0.853726 -0.303769
-2.91616 0.707731 -0.334639
-3.03321 0.880319 -0.31237
-2.94023 -2.47675 -0.674772
-3.14499 -2.03044 -0.633684
-3.22209 -2.2775 -0.848951
-3.16321 -2.26404 -0.386669
-3.03914 -4.25341 0.579285
-2.64287 -3.80807 0.20828
-2.47531 -4.18593 0.714333
-2.97264 -3.41482 0.618231
-2.84101 -4.03074 0.393783
-2.75723 -4.21967 0.646809
-3.00589 -3.83412 0.598758
-2.55909 -3.997 0.461307
-2.80776 -3.61144 0.413255
-2.72397 -3.80037 0.666282
-2.39684 -0.595487 -0.803365
-1.98884 -0.54749 -0.836812
-2.24172 -0.466498 -0.098067
-2.21295 -0.01831 -0.514797
-2.19284 -0.571489 -0.820088
-2.31928 -0.530992 -0.450716
-2.3049 -0.306899 -0.659081
-2.11528 -0.506994 -0.46744
-2.1009 -0.2829 -0.675804
-2.22734 -0.242404 -0.306432
-3.36239 -4.55484 -1.31864
-3.11171 -4.25429 -0.873787
-2.86199 -4.55394 -1.36046
-2.79118 -5 -0.96439
-3.23705 -4.40456 -1.09621
-3.11219 -4.55439 -1.33955
-3.07678 -4.77742 -1.14151
-2.98685 -4.40411 -1.11712
-2.95144 -4.62714 -0.919088
-2.82658 -4.77697 -1.16243
-3.88203 2.65205 -0.416886
-3.48121 2.84727 -0.340672
-3.82273 3 -0.474998
-3.72541 2.76868 -0.627028
-3.68162 2.74966 -0.378779
-3.85238 2.82603 -0.445942
-3.80372 2.71037 -0.521957
-3.65197 2.92364 -0.407835
-3.60331 2.80798 -0.48385
-3.77407 2.88434 -0.551013
[...]
POINT_DATA 7451
 
FIELD FieldData 2
velocity 3 7451 double
-0.122419 -0.347366 0.00956584
1.52059e-030 3.4334e-030 -1.90233e-031
4.40902e-031 1.20249e-030 -5.61911e-032
1.27182e-030 3.41773e-030 -1.73936e-031
-0.0833848 -0.203608 0.0114747
-0.0725956 -0.199734 0.00928369
-0.0802929 -0.232325 0.0123287
-1.87388e-018 -4.54099e-018 3.1588e-019
5.66858e-018 1.41139e-017 -1.10979e-018
1.85635e-029 -7.96715e-030 -4.32836e-030
8.80344e-030 2.93221e-030 -2.00322e-031
-0.411512 -0.109311 0.00109076
-0.627561 -0.142636 0.00752363
-0.707552 -0.230951 0.00622692
-0.227367 -0.0769818 0.00707216
-0.306752 -0.0932143 0.00990274
-0.405995 -0.146977 0.00943914
-0.535805 -0.134366 0.00703782
-0.593562 -0.174655 0.00538811
-0.677128 -0.192751 0.00851592
9.45065e-029 -2.92392e-031 2.72604e-032
-0.848898 0.00732936 -0.000628442
-1.10723 4.80376e-005 -0.000606985
5.45696e-029 -2.19854e-031 5.26018e-032
-0.552885 0.00344239 7.70045e-005
-0.83711 1.07781e-005 -0.00253549
-1.34562e-016 2.50504e-019 -3.15907e-019
-1.00959 0.00128864 -7.76246e-005
-0.480073 0.00635525 -0.000801411
-0.743304 0.00192476 -0.000178582
3.21541e-029 3.32606e-030 5.72194e-032
2.11689e-029 1.35261e-030 2.74887e-031
-0.701501 -0.105011 -0.0137263
-0.886625 -0.0623788 -0.00507758
-1.05899e-016 -6.65743e-018 -1.46031e-018
-0.423471 -0.0482957 -0.00391434
-0.527226 -0.0336106 -0.00349872
-0.404208 -0.0313903 -0.00758423
-0.506338 -0.0232988 -0.00490077
-0.799716 -0.0859958 -0.008482
-4.16061e-030 -6.36825e-029 1.90977e-030
0.0262534 0.424393 0.00289393
-4.53992e-030 -7.55736e-029 2.41762e-030
-7.96872e-031 -9.45776e-030 6.19945e-033
0.0236891 0.289309 -0.0037155
-6.33985e-017 -5.84027e-016 1.84703e-017
-4.00249e-018 -4.04065e-017 5.8115e-019
0.0268554 0.343266 -0.00573872
0.0220734 0.252357 0.000423853
-5.75728e-017 -6.16582e-016 1.08736e-017
-0.832551 -0.0163645 -0.00239579
-1.00557 -0.00961334 -0.00224705
-0.905238 -0.0129948 -0.000908873
-1.01275 -0.00261875 -0.000990326
-1.13461 -0.0173382 -0.0031823
-0.987107 -0.0172361 -0.00228652
-1.11849 -0.0046846 -0.00386805
-1.17263 -0.0025053 -0.000474312
-1.27294 -0.0170242 -0.00154968
-0.564577 -0.186738 0.00459337
-0.57106 -0.101928 -0.0202009
1.82979e-029 5.01271e-030 1.93262e-031
-0.624757 -0.165509 -0.00820181
-0.690257 -0.154648 -0.00384424
-0.31003 -0.108985 0.00317638
-0.636019 -0.112107 -0.0188581
-0.34256 -0.0931926 -0.0102492
-0.390591 -0.0842277 -0.00826002
-0.430595 -0.454205 -0.0226142
-0.467214 -0.265132 -0.0501538
-0.606725 -0.336494 -0.0148052
-0.239717 -0.301099 -0.000556626
-0.465688 -0.385572 -0.0393342
-0.520284 -0.398095 -0.0201799
-0.39433 -0.41767 -0.0161603
-0.55465 -0.309713 -0.0323459
-0.387288 -0.327774 -0.0243609
-0.423574 -0.334817 -0.00763724
-1.67798e-029 -6.31674e-030 1.12409e-030
0.349013 0.0525852 -0.00649395
-2.0153e-029 -6.03431e-030 -3.66464e-031
-4.26156e-030 -2.23353e-031 2.41057e-032
0.188302 0.029723 -0.006078
6.03482e-017 5.55103e-018 2.28859e-018
3.22363e-018 2.22569e-019 -2.69112e-020
0.213408 0.0173724 -0.0013548
0.199184 0.0112743 0.00105305
-6.93017e-017 -6.85247e-019 -8.57296e-019
2.50077e-017 1.16256e-017 -7.02331e-019
2.69557e-030 1.22945e-030 -5.19618e-032
-0.509201 -0.210677 0.00888868
2.87947e-030 1.17751e-030 -5.41066e-032
1.25092e-017 6.26908e-018 -3.91652e-019
-0.286862 -0.126847 0.00670341
9.84226e-017 4.42103e-017 -3.58642e-018
-0.287 -0.138492 0.00773672
1.52486e-016 7.80476e-017 -3.42354e-018
-0.316547 -0.135173 0.00581682
-0.0331874 -0.2363 -0.0136823
-0.020407 -0.251312 -0.00888431
-0.0125857 -0.235761 -0.00704352
-0.0523044 -0.498551 -0.0154026
-0.0289726 -0.266385 -0.0112756
-0.0231459 -0.237129 -0.0105395
-0.0455742 -0.378132 -0.0164939
-0.0187728 -0.268898 -0.00954129
-0.0381318 -0.394389 -0.012533
-0.0321065 -0.382676 -0.0118584
0.0112618 0.270195 0.00812202
-6.334e-031 -2.02799e-029 -1.02325e-030
-3.16559e-031 -1.55428e-029 -8.77968e-031
-0.00173789 0.227074 0.0128903
0.00638491 0.145113 0.00809424
0.0055214 0.142407 0.00811328
0.00472321 0.276507 0.0117308
2.15798e-029 2.11484e-030 6.26855e-029
0.00220554 0.135912 0.00920762
0.00110943 0.117164 0.00830479
9.39374e-031 3.46063e-030 -9.78509e-032
-0.0906241 -0.370911 0.00390617
-0.0485005 -0.229457 0.00500985
-0.0580633 -0.233201 0.00629849
-0.0603165 -0.19412 0.00620686
-0.0276245 -0.117205 0.00342131
-0.110409 -0.371706 0.00585643
-0.0760924 -0.329468 0.00569233
-0.0824237 -0.287034 0.00760837
-2.55584e-031 -4.55409e-030 -2.22975e-031
-3.62439e-018 -6.94702e-017 -5.15954e-018
3.54335e-018 6.20833e-017 4.51824e-018
0.00765606 0.137339 0.00669075
1.00303e-029 1.71364e-031 1.96468e-033
1.32891e-029 2.22062e-031 1.55999e-032
1.73368e-029 1.84526e-031 4.23258e-032
6.96083e-017 1.53966e-018 8.41821e-020
-0.521244 -0.0128276 -0.000498734
-4.84311e-030 -4.39245e-029 -2.21869e-029
-0.511723 -0.00650642 -0.000657557
-1.8188e-017 -1.8445e-019 1.71967e-019
-0.520776 -0.00587169 -0.00102829
-1.4638e-028 3.68797e-031 -7.06487e-032
0.486053 0.00057803 0.000721575
-5.41287e-029 3.67878e-032 -1.27519e-031
0.47354 -0.00219406 0.00130661
0.41669 -0.00126195 0.000284025
-6.68317e-017 3.37926e-020 -3.049e-019
0.376038 -0.00021728 0.0013618
0.394205 0.000707965 0.000859588
0.536316 -0.0010435 0.00163472
0.397591 -0.00115121 0.00174077
-0.0804792 -0.330318 -0.0291984
-0.118948 -0.345041 -0.0346053
-0.171008 -0.533733 -0.0263914
-0.0912344 -0.415123 -0.0217577
-0.10725 -0.365047 -0.0350424
-0.134878 -0.482545 -0.0340774
-0.0940083 -0.403262 -0.0300909
-0.178732 -0.519392 -0.0383304
-0.108623 -0.387408 -0.0287068
-0.152442 -0.552874 -0.0317966
3.03387e-030 4.0081e-031 -6.65311e-032
-0.669722 -0.123918 0.0100148
6.56091e-030 5.26065e-031 -1.1514e-031
2.91262e-029 1.94525e-030 -1.49309e-031
-0.377346 -0.0499805 0.0102837
-9.80635e-017 -7.7592e-018 3.41173e-018
1.36446e-016 6.17574e-018 -3.95456e-018
-0.364916 -0.0442136 0.00889761
-0.380863 -0.0311397 0.00699344
-2.2247e-017 -7.02448e-019 7.76443e-019
-0.404177 -0.101749 -0.0145532
-0.687621 -0.233579 -0.0113884
-0.729748 -0.112937 -0.00681785
-0.409482 -0.118067 -0.00509507
-0.567717 -0.170048 -0.0140691
-0.583512 -0.118331 -0.0114864
-0.411432 -0.114192 -0.00959562
-0.744302 -0.17509 -0.0115389
-0.579396 -0.181685 -0.0065775
-0.594402 -0.127515 -0.00634307
-0.628127 -0.0135714 0.00195002
3.26406e-030 3.8247e-032 -6.82069e-033
2.90748e-029 3.54162e-031 -1.49825e-031
1.33867e-029 1.80052e-031 -2.72703e-032
-0.3385 -0.00335508 0.00130569
-0.336035 -0.00629357 0.00284271
-0.366634 -0.00423653 0.00203561
-2.40122e-016 -1.9071e-018 2.1139e-018
-1.7367e-016 -2.38557e-019 1.05084e-018
-1.07535e-029 -2.0842e-029 4.67888e-029
-0.0587823 -0.39725 0.00548897
-0.0557366 -0.320599 0.00566728
-0.086656 -0.369341 0.00673587
-0.0793652 -0.412798 0.00417219
-0.742594 -0.154092 -0.0443182
-0.409601 -0.0378737 -0.0212218
-0.605132 -0.2051 -0.0500154
-0.464661 -0.144881 -0.0404478
-0.695846 -0.263808 -0.031585
-0.615665 -0.0968182 -0.0375681
-0.547913 -0.209397 -0.0228905
-0.812957 -0.0103354 0.000550633
-3.67426e-017 4.33693e-020 8.29204e-020
-0.813342 -0.00911903 0.00352699
-0.508209 -0.00734424 0.00301802
-2.43597e-029 -2.97743e-029 5.87287e-029
-0.508274 -0.00582135 0.00457326
-0.46174 -0.00797846 0.00172014
-0.944345 -0.0126566 0.00307151
-0.592012 -0.00286347 0.00304019
5.27507e-030 9.20993e-032 -8.4532e-033
-0.343091 -0.0064422 0.00204214
-7.74464e-017 -1.26228e-018 1.73632e-018
-1.02282e-016 -8.38117e-019 6.60353e-019
-1.11598 -0.0514811 0.00290939
-1.25062 -0.0418892 -0.00321286
-1.06254 -0.026661 0.00071166
-0.980986 -0.0224884 0.00351957
-1.24856 -0.0508109 0.000232472
-1.14122 -0.0263347 -0.00144703
-1.18969 -0.0274876 0.00148735
1.98707e-017 -1.52546e-019 -3.14498e-019
-4.77464e-029 4.59388e-031 4.64103e-031
-1.77015e-029 5.31608e-032 9.24171e-032
0.477162 -0.00459278 -0.000867834
-3.05695e-017 2.81012e-019 4.44403e-019
1.315e-029 -3.15563e-029 9.53909e-029
0.291368 -0.00294842 -0.00292298
-3.14953e-017 1.03778e-019 3.21137e-019
0.326038 -0.00364891 -0.00232342
0.294443 9.41482e-005 -0.00200448
7.55473e-032 -7.0729e-030 -5.5237e-031
-3.15937e-031 -2.17343e-029 -1.30718e-030
-5.81646e-033 -2.61873e-030 -1.96038e-031
-0.00125858 0.119436 0.00925441
0.00198351 0.126402 0.0100575
3.51494e-005 0.115221 0.00808745
-7.07826e-019 -5.87538e-017 -7.09176e-018
-7.87103e-020 2.68942e-017 2.41956e-018
-1.28236e-018 -5.6882e-017 2.59788e-018
0.0216669 0.701647 -0.00733495
-0.0253872 0.508584 -0.00164429
-0.0278645 0.721176 -0.0370534
-0.0279958 0.655734 -0.0183248
-0.0072403 0.745114 -0.0045257
-0.00377508 0.903991 -0.0260953
-0.00646217 0.848878 -0.015778
-0.0279713 0.666016 -0.0162036
-0.0268697 0.583659 -0.00739217
-0.029336 0.71782 -0.0292283
0.366871 0.162431 0.024307
-2.58763e-029 -1.68894e-030 -1.80386e-031
0.456641 0.0153446 -0.00238577
0.408985 0.106273 -0.000239133
0.246517 0.00773443 -0.000862493
0.422934 0.0335132 -0.00195943
0.195456 0.00535451 0.00908639
0.412844 0.0529847 -0.00124522
0.268433 0.00111954 -0.00309061
-1.95861e-018 -2.71375e-017 -1.22038e-018
1.07634e-031 1.22165e-030 5.97671e-032
-0.00755683 -0.120048 -0.00450894
-0.0080841 -0.114991 -0.00399899
-4.15137e-018 -5.20289e-017 -2.2143e-018
-0.0165985 -0.129623 -0.0074874
-0.0152778 -0.121707 -0.00786382
-7.42747e-018 -3.00564e-017 1.13358e-018
2.76522e-031 1.75563e-030 -3.7523e-032
-0.0311917 -0.133265 0.00426359
1.24878e-017 6.63516e-017 -1.63743e-018
1.99492e-029 -6.56501e-030 -1.1794e-031
-0.0211786 -0.130874 0.0019285
2.18073e-017 1.18438e-016 -2.52677e-018
-0.183952 -0.295221 0.00808733
1.43969e-030 2.01243e-030 -1.12057e-031
6.78321e-031 1.08848e-030 -5.5253e-032
5.09129e-031 8.85289e-031 -4.63877e-032
-0.112948 -0.170032 0.00956827
-0.103178 -0.164914 0.00840572
-0.100088 -0.16975 0.0087049
-5.14648e-017 -7.76571e-017 5.7746e-018
-3.2257e-016 -5.12048e-016 3.7915e-017
-1.97692e-016 -3.32273e-016 2.32116e-017
-1.30631e-031 -3.94778e-030 1.68688e-031
-2.02454e-031 -1.15657e-029 5.39016e-031
-6.24067e-031 -1.97764e-029 1.08333e-030
0.0101548 0.40975 -0.0141037
-3.59655e-018 -1.63336e-016 7.68251e-018
-5.84304e-019 -1.85536e-017 9.69473e-019
0.00655944 0.244346 -0.00921844
8.99455e-019 3.52434e-017 -1.99038e-018
0.00605554 0.302845 -0.0139343
0.00904913 0.294929 -0.0153066
-5.51676e-029 -4.37705e-032 1.2439e-030
-5.79487e-029 3.78066e-031 6.26627e-031
0.480841 -0.0116895 9.2911e-005
2.5296e-017 3.34954e-020 -6.40895e-019
-2.75164e-017 1.5679e-019 6.23246e-019
0.384134 -0.00321491 -0.00827204
-6.25491e-017 5.43893e-019 6.15832e-019
0.420597 -0.00188262 -0.00597882
0.370584 -0.00556035 -0.00333033
5.96599e-020 8.96224e-019 4.29291e-020
0.0072105 0.400517 0.0160926
-2.12925e-030 -5.90189e-029 -2.02332e-030
0.00827891 0.218704 0.0104011
-4.33257e-018 -7.14982e-017 -9.31666e-018
0.0196544 0.389293 0.00841115
0.00757367 0.187086 0.0122845
0.0148841 0.581073 0.00780246
0.0158422 0.379606 0.0135368
0.0199098 -0.0558066 -0.0513433
0.0190723 -0.0110414 -0.0341162
-0.128936 -0.209164 -0.0357094
-0.135685 -0.100907 -0.0474265
0.0177456 -0.0442012 -0.0474814
-0.0621149 -0.159624 -0.0469045
-0.0629646 -0.10254 -0.0566025
-0.0456119 -0.0932753 -0.0323028
-0.051554 -0.0538181 -0.0412511
-0.126486 -0.158509 -0.0421302
-0.00170863 0.364794 0.0167108
0.00693749 0.410554 0.0168878
0.00727155 0.226021 0.0135504
0.00912201 0.572135 0.0100994
0.000685198 0.675295 -0.0298047
-0.0160271 0.67304 -0.0167433
-0.0174163 0.540979 -0.0319697
-0.000686529 0.74936 -0.043925
-0.0083215 0.724469 -0.0235415
-0.00978748 0.663884 -0.0334783
0.000340108 0.713057 -0.0375084
-0.0189061 0.653554 -0.0251315
-0.0103946 0.757055 -0.0277659
-0.0129358 0.67872 -0.0390742
1.78212e-017 5.3769e-017 3.7413e-018
5.69442e-017 1.41954e-018 1.03537e-019
0.401903 0.440116 -0.0212028
0.302061 0.106973 -0.0260851
1.35204e-029 3.64559e-029 4.12353e-029
0.265782 0.29263 -0.0148911
0.201662 0.11193 -0.0180326
0.299565 0.167711 -0.0169661
0.231658 0.0571739 -0.0124695
0.385112 0.249962 -0.0292879
7.9886e-019 2.09797e-017 1.62536e-018
0.00199205 0.208186 0.00809914
1.87463e-031 -1.31479e-029 -4.82208e-031
-0.00166657 0.155218 0.00251723
0.00229688 0.0992885 0.00568477
1.31705e-018 3.30587e-017 4.37268e-018
0.000577965 0.088946 0.00320892
-3.93202e-005 0.0991476 0.00530723
-0.000646145 0.18544 0.00455383
-0.00104545 0.0779474 0.00278385
6.15564e-031 3.32897e-030 -6.92392e-032
-0.0413881 -0.321654 0.00193093
5.72727e-031 1.06744e-029 -1.01873e-031
9.82678e-031 4.86677e-030 -8.65713e-032
-0.0277958 -0.189898 0.00365535
-2.85423e-017 -2.42468e-016 5.43906e-018
2.21902e-029 -4.82534e-030 1.54711e-029
-0.0179422 -0.18368 0.00208255
-0.0257665 -0.176238 0.00174327
-2.2845e-017 -1.97622e-016 2.83926e-018
0.517241 -0.00028744 -0.000177138
-2.01816e-029 2.52683e-032 -4.49115e-033
-2.09834e-029 1.32965e-032 4.03699e-033
-3.57438e-029 4.91318e-032 6.39972e-033
0.347636 0.000137114 -8.53786e-005
0.349256 -0.000133018 -0.0002291
0.347191 -0.000301572 6.17139e-005
-1.94632e-016 -6.56432e-020 1.00324e-019
1.2821e-029 3.65536e-021 -1.72142e-029
2.53928e-017 -1.68697e-020 -4.57122e-021
0.201911 0.75149 -0.0461998
-0.0113242 0.793065 -0.0291972
-0.017177 0.931874 -0.0885775
0.0360439 0.710621 -0.00572552
0.0919891 0.899631 -0.0534378
0.0689549 0.884305 -0.0766048
0.136529 0.842428 -0.0399087
-0.0177318 0.979604 -0.0666638
0.0524086 0.812321 -0.0199198
0.0433913 0.983845 -0.0576707
-7.56233e-029 1.08875e-031 2.19069e-032
-4.45237e-029 8.52273e-032 8.72179e-032
-5.5289e-029 4.43421e-031 -5.12102e-032
0.473065 -0.00386865 0.000134573
3.90766e-019 1.0504e-019 -6.37379e-022
3.84762e-019 -2.29273e-020 -4.69988e-022
0.373402 4.74816e-005 -0.00127105
9.08338e-019 -2.44735e-022 3.43083e-030
0.333351 0.000520875 -0.00100511
0.379442 -0.00258352 0.00070766
8.18363e-030 4.76857e-030 -2.48107e-031
-0.394548 -0.239893 0.0119129
2.7868e-030 1.65446e-030 -1.04638e-031
-0.268688 -0.172387 0.0101659
-0.260744 -0.13959 0.00811448
5.74126e-016 3.87201e-016 -2.92309e-017
-0.452055 -0.228566 0.010316
-0.237628 -0.155984 0.011525
-0.250386 -0.137766 0.00818713
-0.841121 0.000940817 0.00602945
1.78964e-028 -2.32556e-031 -2.62695e-031
1.32996e-029 -8.68073e-032 -1.66266e-031
-0.840052 0.00520509 0.00298305
-0.556659 0.00278286 0.00281787
-0.50133 -0.00036812 0.00637437
-0.929975 0.0041086 0.00362413
-2.29804e-029 3.25886e-029 6.0637e-029
-0.473442 0.00439822 0.00197495
-0.505917 0.00647186 0.00357303
-3.60016e-029 3.19205e-031 1.91156e-031
-1.31854e-029 1.89739e-031 1.52655e-031
-2.03687e-029 -8.93544e-031 6.34977e-033
-4.55555e-017 1.98989e-018 3.27286e-019
-1.17863e-018 1.73908e-020 3.54968e-020
0.297559 -0.00214145 -0.00139104
-1.61668e-017 4.05183e-019 5.63752e-019
0.274687 -0.00520914 -0.00227272
0.283987 0.00460192 -0.0104399
-7.90003e-029 1.30776e-030 -2.98189e-031
0.381604 -0.00640944 0.000703756
0.319288 -0.00984087 0.00215229
0.345919 -0.00699072 0.00082767
0.531028 -0.00837744 8.1016e-005
0.548799 -0.00563585 -0.000101107
0.483307 -0.0105183 -0.000489274
-1.72649e-029 -2.01709e-031 2.74418e-032
-3.24153e-029 4.06368e-031 -2.03164e-032
5.36717e-017 -2.56775e-018 -3.01373e-019
4.69416e-017 -2.63544e-018 -4.43062e-019
0.278902 -0.00267998 -0.00074658
4.20471e-018 -2.08289e-019 -4.89158e-020
0.286694 -0.00361737 -0.00279484
-6.04684e-029 2.56456e-031 2.46864e-031
0.472714 0.00157722 -0.000702945
-4.02224e-029 1.4321e-031 1.04311e-031
0.289362 -0.0015502 -0.000827055
-9.74752e-017 1.64005e-019 7.00662e-019
0.370386 -0.00307542 -0.00188123
0.301014 -0.00011206 -0.000782281
0.495563 -0.00160181 -0.000800801
0.31803 0.000598176 -0.0021857
-1.61713e-029 1.2219e-031 -1.30253e-031
-4.76403e-029 7.27292e-033 -3.11114e-031
-5.54788e-029 3.02104e-031 -2.68148e-031
3.33628e-017 -5.27645e-019 8.30057e-019
-3.58946e-017 6.0781e-019 -7.95865e-019
0.2925 -0.00386039 0.00574006
-2.34477e-017 3.25729e-019 -3.85313e-019
0.304187 -0.00292885 0.00386786
0.303937 -0.00332694 0.00288788
1.37319e-030 -7.96815e-030 4.3879e-031
-0.180497 0.11725 -0.0216767
1.89778e-030 -3.65058e-030 5.60877e-031
0.0748944 0.216798 -0.0291683
-0.0600532 0.085629 -0.00565839
-1.36365e-017 6.97089e-018 1.51963e-020
0.00872073 0.137615 -0.00697746
-0.0681646 0.0434672 -0.00511449
-0.0687444 0.180453 -0.023634
-0.00399849 0.0771221 -0.00786926
-6.51947e-030 -3.60827e-030 -8.08511e-031
-5.2507e-029 -7.23252e-030 -1.08245e-030
-8.92954e-030 -1.94685e-029 2.59373e-031
0.205197 0.0451846 0.0356718
0.243445 0.0881452 0.0216765
0.256484 0.198756 0.0512887
2.75913e-030 5.10949e-029 -3.15935e-029
5.61617e-017 5.3256e-017 1.28732e-017
-6.9781e-017 -4.535e-017 -1.34079e-017
-2.11739e-029 -1.82445e-031 5.67453e-032
1.44558e-029 3.99229e-019 -6.73542e-029
6.2232e-017 -1.64436e-018 -3.14255e-020
0.309406 -0.000288232 0.00138069
-0.0936938 -0.265256 0.00276114
1.57721e-030 3.19929e-030 -5.22357e-032
-0.152615 -0.263989 -0.00460466
3.50952e-030 7.88782e-030 4.74082e-032
-0.0600948 -0.137857 0.00368753
-0.127186 -0.273315 -0.000743289
-0.0605224 -0.145906 0.00229332
-0.083948 -0.152297 0.00168311
9.92959e-018 1.95933e-017 -4.75698e-019
-0.0733837 -0.139576 -0.00010381
-0.287955 -0.325166 -0.0318062
-0.268574 -0.485647 -0.0342624
-0.118661 -0.184119 -0.0160534
-0.221519 -0.281604 -0.0389775
-0.286777 -0.416103 -0.0339068
-0.197944 -0.27293 -0.0258359
-0.224714 -0.367771 -0.0419103
-0.133678 -0.206761 -0.022813
-0.212561 -0.363681 -0.0307197
0.470991 0.00160908 8.43411e-005
-9.5188e-029 -2.60168e-031 3.43459e-031
-3.90288e-029 -1.83451e-031 5.24478e-032
0.484138 0.00210469 -0.000744956
0.307289 0.00245286 -0.000898002
0.2904 0.00241511 0.000645096
0.491115 0.00258664 -0.00106845
4.15934e-029 -8.2143e-030 -1.032e-028
0.401963 -0.00145201 -0.00159044
0.353512 -0.000376071 -0.000338141
-1.70954e-029 2.52792e-032 1.59456e-032
-4.53035e-029 1.36651e-032 -6.91369e-033
-8.45795e-029 4.45866e-032 4.87223e-032
1.29986e-029 4.65906e-029 8.2102e-029
0.294906 -0.000466622 -0.000206067
6.40568e-017 3.18793e-019 -3.25349e-020
0.323237 0.000657975 0.000447376
-3.03247e-017 -1.00543e-019 2.92419e-020
0.294997 -8.13376e-005 -0.000406289
-2.56113e-029 4.64405e-032 -3.02796e-032
-4.96687e-029 5.39309e-032 -1.06624e-031
0.512975 -0.00058207 0.000265573
-8.58169e-029 1.16332e-031 -2.07664e-031
8.3925e-017 -2.09256e-019 4.15702e-019
0.387266 -0.00088639 0.000773615
-6.62032e-017 3.72873e-019 -1.68268e-019
0.398008 -0.000723104 0.00197839
3.14416e-017 5.69889e-020 2.07909e-019
0.377596 -0.00226794 0.000651301
0.470074 0.001152 -0.000621958
-9.49867e-029 3.97941e-032 9.71171e-032
0.539748 8.97424e-005 -7.10065e-005
0.34461 0.000250949 -0.000346308
0.473053 0.00199282 0.000425279
0.376701 -0.00155139 0.00111357
0.54638 0.00196935 -0.000949355
0.383349 0.000803798 -0.000343614
1.26322e-029 1.21278e-031 -9.92026e-032
-0.34759 -0.00530376 0.00475078
8.41422e-017 9.14289e-019 -5.24895e-018
-0.462811 -0.00487108 0.00487108
-0.755139 -0.0106893 0.00458853
1.23096e-030 -5.73377e-029 3.6835e-030
1.47858e-031 -1.05772e-028 6.62257e-030
-0.00984815 0.670659 -0.041725
4.64496e-005 0.677913 -0.0424685
-0.0122368 0.4682 -0.0309468
1.39258e-018 -9.08709e-017 6.07968e-018
-0.00805317 0.558044 -0.0356015
0.000640565 0.529006 -0.00292468
0.0120751 0.277583 0.00206191
0.00422778 0.541077 -0.00862117
0.000132844 0.354801 -0.000299111
0.00918377 0.429435 0.000294886
0.0033899 0.537622 -0.00593652
0.000338417 0.444703 -0.000565064
0.00845894 0.423944 -0.002853
0.00518245 0.342976 0.000874817
0.00189966 0.462454 -0.00332126
0.00724249 0.265927 0.0060071
0.00183074 0.376042 0.00508026
0.000928843 0.283844 0.00309632
8.28988e-029 1.54085e-030 6.60743e-031
1.39363e-028 2.8088e-030 9.6875e-031
2.48941e-029 2.90143e-031 1.20563e-031
-0.631329 -0.00810341 -0.00368269
-0.595275 -0.0088966 -0.00592189
-0.594975 -0.0100292 -0.00359394
-1.35988e-016 3.45178e-019 -1.89701e-018
-1.60654e-016 -2.95895e-018 -1.36626e-018
-1.52648e-016 -3.13508e-018 -1.86346e-018
7.18693e-031 2.71699e-030 -5.9928e-032
-0.164098 -0.48977 -0.00405578
4.0177e-030 2.00015e-029 1.28661e-031
1.51146e-030 7.40275e-030 -1.33437e-031
-0.094869 -0.356557 0.00657237
4.37979e-030 -4.10806e-030 -2.64588e-029
-4.2835e-017 -2.09666e-016 7.38648e-018