# vtk DataFile Version 2.0 
output.vtk, Created by Freefem++, via gregorio
ASCII
DATASET UNSTRUCTURED_GRID
POINTS 7451 double
-3.79965 2.23652 0.040848
-4.13429 2.05574 0.276253
-4.09122 2.24524 0.070091
-4.01836 2.27766 0.330071
-3.96697 2.14613 0.158551
-3.94543 2.24088 0.0554695
-3.90901 2.25709 0.185459
-4.11275 2.15049 0.173172
-4.07633 2.1667 0.303162
-4.05479 2.26145 0.200081
-4.81817 0.732763 -0.840268
-4.76136 0.37264 -0.736193
-5.12328 0.495929 -0.550642
-4.73872 0.559667 -0.434419
-4.78977 0.552702 -0.788231
-4.97072 0.614346 -0.695455
-4.77845 0.646215 -0.637344
-4.94232 0.434285 -0.643417
-4.75004 0.466153 -0.585306
-4.931 0.527798 -0.49253
-7.58244 -0.891248 -0.453516
-8 -0.559587 0.124298
-7.26059 -0.264226 0.250847
-7.58828 -0.999993 0.00381
-7.79122 -0.725418 -0.164609
-7.42152 -0.577737 -0.101334
-7.58536 -0.94562 -0.224853
-7.6303 -0.411906 0.187573
-7.79414 -0.77979 0.064054
-7.42444 -0.632109 0.127328
-5.46564 0.048234 0.998836
-5.51396 -0.351144 0.936321
-5.02851 -0.125769 0.598961
-5.56665 -0.148801 0.504295
-5.4898 -0.151455 0.967578
-5.24708 -0.0387675 0.798898
-5.51614 -0.0502835 0.751565
-5.27124 -0.238457 0.767641
-5.5403 -0.249972 0.720308
-5.29758 -0.137285 0.551628
-4.20269 -2.80441 0.102764
-3.63085 -2.57461 -0.287529
-4.13183 -2.29387 0.255347
-4.14432 -2.47254 -0.273935
-3.91677 -2.68951 -0.0923825
-4.16726 -2.54914 0.179055
-4.1735 -2.63848 -0.0855855
-3.88134 -2.43424 -0.016091
-3.88759 -2.52358 -0.280732
-4.13807 -2.38321 -0.009294
-6.25062 -0.085247 0.575431
-6.51584 -0.423084 -0.15939
-6.46019 0.447486 0.293263
-6.75561 -0.174737 0.413139
-6.38323 -0.254165 0.20802
-6.35541 0.181119 0.434347
-6.88822 -0.343655 0.0457285
-6.86039 0.09163 0.272055
-6.48801 0.012201 0.0669365
-4.88162 0.371746 0.655425
-4.51246 -0.112716 0.623981
-4.65723 0.09269 0.995695
-4.69704 0.129515 0.639703
-4.95507 0.122989 0.627193
-4.76942 0.232218 0.82556
-4.77049 -0.119243 0.611471
-4.58484 -0.010013 0.809838
-4.84287 -0.0165395 0.797328
-3.75099 1.20677 0.090288
-3.64118 0.745776 0.266863
-4.09568 0.790235 0.315934
-3.78936 1.07086 0.69071
-3.69609 0.976272 0.178575
-3.92333 0.998502 0.203111
-3.77017 1.13882 0.390499
-3.86843 0.768006 0.291399
-3.71527 0.908319 0.478787
-3.94252 0.930549 0.503322
-2.18572 0.40145 0.915881
-1.75478 0.245881 0.526965
-1.94554 -0.013967 0.999902
-1.76886 0.356252 0.93439
-1.97025 0.323665 0.721423
-2.06563 0.193741 0.957891
-1.97729 0.378851 0.925135
-1.85016 0.115957 0.763433
-1.76182 0.301067 0.730678
-1.8572 0.171143 0.967146
-5.06116 0.824959 0.710182
-4.88551 0.773989 0.80113
-4.92155 0.772883 0.437198
-5.01596 0.602336 0.857802
-4.97333 0.799474 0.755656
-4.99135 0.798921 0.57369
-5.03856 0.713647 0.783992
-4.90353 0.773436 0.619164
-4.95074 0.688163 0.829466
-4.96876 0.687609 0.6475
-2.34262 2.51752 0.051733
-2.4672 2.85727 -0.311185
-2.29554 2.81673 0.086134
-2.65762 2.74748 0.16058
-2.40491 2.6874 -0.129726
-2.31908 2.66712 0.0689335
-2.50012 2.6325 0.106157
-2.38137 2.837 -0.112526
-2.56241 2.80238 -0.0753025
-2.47658 2.7821 0.123357
-3.50303 -3.76846 -0.636668
-3.49422 -3.29308 -1.15018
-3.31427 -3.71149 -1.25136
-2.90724 -3.34218 -0.858121
-3.49863 -3.53077 -0.893424
-3.40865 -3.73997 -0.944014
-3.20514 -3.55532 -0.747394
-3.40425 -3.50228 -1.20077
-3.20073 -3.31763 -1.00415
-3.11076 -3.52683 -1.05474
-4.0054 2.49156 -0.125899
-3.5956 2.50054 -0.194198
-3.83412 2.54803 0.0159
-3.8005 2.49605 -0.160049
-3.90253 2.36404 -0.0425255
-3.91976 2.5198 -0.0549995
-3.69763 2.36853 -0.076675
-3.71486 2.52428 -0.089149
-3.81689 2.39228 0.028374
-3.73452 -3.68531 -1.05781
-3.52439 -3.6984 -1.15459
-3.61437 -3.4892 -1.104
-3.61877 -3.72688 -0.84724
-6.37864 0.944563 0.328331
-6.25891 0.813305 0.581838
-6.65332 0.772267 0.635298
-6.31878 0.878934 0.455085
-6.41941 0.696025 0.310797
-6.51598 0.858415 0.481815
-6.35955 0.630395 0.43755
-6.45612 0.792786 0.608568
-6.55675 0.609877 0.46428
1.62066 -0.841518 -0.540229
1.89324 0.238579 -0.195511
2.01627 -0.690819 -0.723027
2.25185 -0.211859 0.261412
1.75695 -0.30147 -0.36787
1.81846 -0.766169 -0.631628
1.93625 -0.526689 -0.139408
1.95475 -0.22612 -0.459269
2.07254 0.01336 0.0329505
2.13406 -0.451339 -0.230807
-2.56949 2.06853 0.305158
-2.91403 1.60744 0.564909
-3.02709 2.08175 0.021586
-2.87501 2.07662 0.630995
-2.74176 1.83799 0.435033
-2.79829 2.07514 0.163372
-2.72225 2.07258 0.468077
-2.97056 1.8446 0.293247
-2.89452 1.84203 0.597952
-2.95105 2.07919 0.32629
-5.39985 0.358755 0.933432
-5.34934 0.453264 0.543553
-5.56264 0.558471 0.829524
-5.70805 0.297641 0.954678
-5.37459 0.40601 0.738492
-5.48124 0.458613 0.881478
-5.55395 0.328198 0.944055
-5.45599 0.505868 0.686538
-5.52869 0.375452 0.749116
-5.63535 0.428056 0.892101
-4.17913 0.323834 -0.696515
-4.36183 0.516245 -0.417662
-4.60784 0.019305 -0.528365
-4.46586 0.364911 -0.72315
-4.27048 0.42004 -0.557088
-4.39349 0.17157 -0.61244
-4.3225 0.344372 -0.709832
-4.48483 0.267775 -0.473013
-4.41384 0.440578 -0.570406
-4.53685 0.192108 -0.625757
-5.9377 0.438799 -0.558905
-5.87927 0.529091 -0.848565
-6.25926 0.555743 -0.831354
-6.07929 0.245277 -0.969453
-5.90849 0.483945 -0.703735
-6.09848 0.497271 -0.695129
-6.00849 0.342038 -0.764179
-6.06927 0.542417 -0.839959
-5.97928 0.387184 -0.909009
-6.16928 0.40051 -0.900404
-3.64743 2.72944 0.180305
-3.74077 2.63873 0.0981025
-3.72354 2.48298 0.110576
-3.62151 2.61499 -0.0069465
-3.98168 0.388062 0.141859
-3.76543 0.320245 0.603448
-3.81143 0.566919 0.204361
-3.70331 0.533011 0.435156
-4.03868 0.589149 0.228897
-3.87356 0.354154 0.372653
-3.93055 0.55524 0.459691
-6.17342 0.027823 -0.593282
-6.59748 0.255766 -0.966739
-6.35964 0.547779 -0.240473
-6.21634 0.291783 -0.712318
-6.42837 0.405755 -0.899047
-6.30945 0.551761 -0.535914
-6.38545 0.141794 -0.78001
-6.26653 0.287801 -0.416878
-6.47856 0.401772 -0.603606
-5.98474 0.742767 -0.66955
-5.96122 0.590783 -0.614227
-6.122 0.649255 -0.750452
-5.93201 0.635929 -0.759057
-5.86659 0.345457 -0.129882
-5.96054 -0.099592 -0.035866
-6.02 0.18664 -0.361582
-6.11312 0.446618 -0.185177
-5.91357 0.122933 -0.082874
-6.06698 -0.0358845 -0.314574
-6.16009 0.224094 -0.13817
-1.10421 0.363269 -0.931684
-0.773878 0.737644 -0.67519
-0.520452 0.269543 -0.962988
-0.384634 0.008888 -0.353445
-0.939043 0.550457 -0.803437
-0.812329 0.316406 -0.947336
-0.74442 0.186079 -0.642564
-0.647165 0.503594 -0.819089
-0.579256 0.373266 -0.514317
-0.452543 0.139215 -0.658216
-2.85287 -3.00249 -1.21636
-3.23054 -2.92385 -1.196
-3.06719 -3.3306 -1.25351
-2.88006 -3.17233 -1.03724
-3.06889 -3.13301 -1.02706
-2.98722 -3.33639 -1.05581
-3.0417 -2.96317 -1.20618
-2.96003 -3.16654 -1.23493
-3.14886 -3.12722 -1.22475
-3.38618 -2.05134 -0.098565
-2.37808 -2.56123 -0.134541
-2.49252 -2.47812 0.422472
-2.41131 -1.89586 0.044632
-2.88213 -2.30628 -0.116553
-2.93935 -2.26473 0.161954
-2.89875 -1.9736 -0.0269665
-2.4353 -2.51967 0.143966
-2.39469 -2.22855 -0.0449545
-2.45192 -2.18699 0.233552
-1.85713 -0.413967 0.42138
-1.65927 -0.390905 0.920431
-1.2503 -0.077569 0.384148
-1.80595 -0.084043 0.474172
-1.70702 -0.072512 0.723698
-1.50254 0.084156 0.455557
-1.7582 -0.402436 0.670905
-1.55371 -0.245768 0.402764
-1.45478 -0.234237 0.652289
-2.09043 2.55218 0.167395
-2.0659 2.66009 -0.048555
-2.19298 2.68445 0.126765
-2.18072 2.73841 0.0187895
-2.07816 2.60614 0.05942
-2.21652 2.53485 0.109564
-2.20426 2.58881 0.001589
-4.01665 2.44382 0.136481
-3.97233 2.67361 0.084512
-3.92539 2.49592 0.0761905
-3.99449 2.55872 0.110496
-4.01103 2.46769 0.005291
-3.90323 2.61082 0.050206
-3.98887 2.58259 -0.0206935
-3.92754 1.80484 -0.220103
-4.28096 1.83407 -0.225431
-4.13592 1.88983 -0.461486
-4.146 2.03152 -0.278406
-4.10425 1.81945 -0.222767
-4.03173 1.84734 -0.340795
-4.03677 1.91818 -0.249254
-4.20844 1.86195 -0.343458
-4.21348 1.9328 -0.251918
-4.14096 1.96068 -0.369946
-4.04038 -5 0.949212
-3.62468 -5 1.26221
-3.84559 -4.54287 1.07336
-3.71487 -5 0.728948
-3.83253 -5 1.10571
-3.94299 -4.77144 1.01129
-3.87763 -5 0.83908
-3.73513 -4.77144 1.16779
-3.66977 -5 0.99558
-3.78023 -4.77144 0.901156
-1.37334 0.812082 -0.583544
-0.975724 0.961208 -0.275823
-1.19336 -0.166381 -0.273753
-1.17453 0.886645 -0.429683
-1.07361 0.774863 -0.629367
-1.28335 0.32285 -0.428648
-0.874801 0.849426 -0.475506
-1.08454 0.397413 -0.274788
-0.983618 0.285631 -0.474471
-3.83515 -1.82017 -0.741539
-3.34976 -1.58414 -0.592596
-3.50394 -2.07825 -1.02313
-3.59245 -1.70215 -0.667067
-3.66955 -1.94921 -0.882335
-3.61067 -1.93575 -0.420052
-3.42685 -1.83119 -0.807863
-3.36797 -1.81774 -0.345581
-3.44506 -2.06479 -0.560848
-2.72946 0.769161 0.094533
-2.75119 0.681139 -0.326037
-2.98528 1.02631 -0.281501
-3.08113 0.734324 -0.34324
-2.74032 0.72515 -0.115752
-2.85737 0.897737 -0.093484
-2.90529 0.751742 -0.124353
-2.86823 0.853726 -0.303769
-2.91616 0.707731 -0.334639
-3.03321 0.880319 -0.31237
-2.94023 -2.47675 -0.674772
-3.14499 -2.03044 -0.633684
-3.22209 -2.2775 -0.848951
-3.16321 -2.26404 -0.386669
-3.03914 -4.25341 0.579285
-2.64287 -3.80807 0.20828
-2.47531 -4.18593 0.714333
-2.97264 -3.41482 0.618231
-2.84101 -4.03074 0.393783
-2.75723 -4.21967 0.646809
-3.00589 -3.83412 0.598758
-2.55909 -3.997 0.461307
-2.80776 -3.61144 0.413255
-2.72397 -3.80037 0.666282
-2.39684 -0.595487 -0.803365
-1.98884 -0.54749 -0.836812
-2.24172 -0.466498 -0.098067
-2.21295 -0.01831 -0.514797
-2.19284 -0.571489 -0.820088
-2.31928 -0.530992 -0.450716
-2.3049 -0.306899 -0.659081
-2.11528 -0.506994 -0.46744
-2.1009 -0.2829 -0.675804
-2.22734 -0.242404 -0.306432
-3.36239 -4.55484 -1.31864
-3.11171 -4.25429 -0.873787
-2.86199 -4.55394 -1.36046
-2.79118 -5 -0.96439
-3.23705 -4.40456 -1.09621
-3.11219 -4.55439 -1.33955
-3.07678 -4.77742 -1.14151
-2.98685 -4.40411 -1.11712
-2.95144 -4.62714 -0.919088
-2.82658 -4.77697 -1.16243
-3.88203 2.65205 -0.416886
-3.48121 2.84727 -0.340672
-3.82273 3 -0.474998
-3.72541 2.76868 -0.627028
-3.68162 2.74966 -0.378779
-3.85238 2.82603 -0.445942
-3.80372 2.71037 -0.521957
-3.65197 2.92364 -0.407835
-3.60331 2.80798 -0.48385
-3.77407 2.88434 -0.551013
[...]
POINT_DATA 7451
 
FIELD FieldData 2
velocity 3 7451 double
-1.28933 -3.71134 0.0285139
1.5996e-029 3.70966e-029 -1.50679e-030
5.27303e-030 1.45596e-029 -2.03916e-031
1.3719e-029 3.71093e-029 -1.43555e-030
-0.932362 -2.2971 0.073364
-0.857875 -2.36432 0.0335501
-0.919319 -2.63071 0.0914318
-2.26512e-017 -5.54775e-017 1.83209e-018
6.63215e-017 1.6273e-016 -9.26478e-018
5.59855e-030 -1.14865e-029 -1.785e-030
2.61034e-029 1.57826e-029 1.2377e-030
-1.09535 -0.68129 -0.0481763
-1.64824 -0.593614 -0.0403269
-1.88196 -1.16866 -0.0630173
-0.689342 -0.44917 -0.0302237
-0.911617 -0.437374 -0.0346096
-1.24051 -0.802715 -0.0711891
-1.42381 -0.667521 -0.0376394
-1.56803 -0.974621 -0.0552766
-1.78738 -0.872892 -0.0557754
2.2828e-028 -6.97465e-032 3.96024e-031
-2.00239 0.0142067 -0.0020738
-2.35546 -0.00309484 0.00165487
1.36102e-028 -3.15104e-031 2.31222e-031
-1.38325 0.000128333 -0.00617398
-2.02053 -0.00618047 -0.0097722
-3.5121e-016 -2.00763e-019 -1.82557e-018
-2.27109 0.000135489 -0.000964001
-1.23919 0.0132206 -0.00663418
-1.83717 0.0031011 -0.00333066
8.03638e-029 1.23284e-029 1.61497e-031
5.36712e-029 5.42926e-030 1.47884e-030
-1.57991 -0.353779 -0.0626507
-2.01196 -0.170326 -0.0195084
-2.92771e-016 -3.77381e-017 -9.66147e-018
-1.07635 -0.210398 -0.0203927
-1.33891 -0.134575 -0.0183593
-1.03213 -0.133712 -0.0407943
-1.28842 -0.094214 -0.0303024
-1.82358 -0.250298 -0.0336327
8.80422e-030 1.14126e-028 -1.1397e-030
-0.0563994 -0.825188 -0.0326656
8.94889e-030 1.33608e-028 -1.16728e-030
2.28994e-030 2.65094e-029 8.96881e-031
-0.0621513 -0.661398 -0.00524012
1.63676e-016 1.29855e-015 -7.75346e-018
1.21052e-017 1.17926e-016 1.76398e-018
-0.0626501 -0.715684 -0.0065166
-0.0647523 -0.712751 -0.0254759
1.59526e-016 1.63356e-015 2.51822e-017
-1.95079 -0.046166 -0.0113731
-2.20731 -0.0229915 0.0023973
-2.0965 -0.0354487 -0.00541552
-2.29215 -0.0187249 -0.007312
-2.46743 -0.043393 -0.00974633
-2.24551 -0.0470386 -0.00929057
-2.41851 -0.00685625 -0.000842265
-2.53538 -0.0172159 -0.00730605
-2.66312 -0.0422327 -0.00504388
-1.45858 -0.754923 0.0648247
-1.07794 -0.671207 -0.140558
4.33275e-029 2.86781e-029 8.21094e-031
-1.40823 -0.786899 -0.0279066
-1.61257 -0.579899 -0.00458818
-0.808195 -0.608668 0.0365644
-1.36773 -0.492824 -0.0957365
-0.780676 -0.639497 -0.0692436
-0.951973 -0.442978 -0.0442632
-1.91274 -3.82828 -0.017626
-0.971763 -3.33068 -0.0783223
-1.79484 -2.56266 0.0408742
-1.30455 -3.09825 0.0439753
-1.49966 -3.6193 -0.0703202
-1.88479 -3.20403 0.0257845
-1.80633 -3.59159 0.0139389
-1.46275 -2.95975 -0.0162336
-1.34011 -3.40527 -0.0973559
-1.59017 -2.91595 0.0573326
-5.26363e-029 1.79792e-029 -5.02708e-030
0.841667 -0.114515 0.034068
-4.85177e-029 1.56322e-029 4.49052e-031
-1.11633e-029 1.64238e-030 -6.82725e-031
0.536367 -0.13062 0.048778
2.00423e-016 -9.07727e-017 1.15923e-017
9.4613e-018 -2.19564e-018 8.9449e-019
0.52594 -0.120883 0.0226693
0.509559 -0.0716994 0.0273534
-1.78916e-016 3.93905e-017 -9.60234e-018
8.18753e-017 4.68027e-017 -9.13364e-018
8.2727e-030 5.45697e-030 -7.8371e-031
-1.55428 -0.851402 0.0967682
8.44973e-030 5.00642e-030 -7.09529e-031
4.15639e-017 2.69531e-017 -5.27802e-018
-0.910976 -0.511476 0.0824694
3.07463e-016 1.81733e-016 -5.30675e-017
-0.92696 -0.602124 0.100621
4.81682e-016 3.57985e-016 -5.52439e-017
-0.955808 -0.558284 0.0854121
-0.379633 -2.65245 -0.0275257
-0.228882 -3.41578 -0.088861
-0.141862 -2.66497 0.00564189
-0.488464 -4.38592 -0.013702
-0.311376 -3.17912 -0.0209701
-0.261742 -2.65981 -0.0123789
-0.46238 -3.71269 -0.0217365
-0.198624 -3.21791 -0.0304004
-0.379331 -4.11499 -0.0224807
-0.329225 -3.79167 0.00383904
-0.032563 -0.783379 -0.0462689
2.62772e-030 8.93963e-029 6.57005e-030
1.55826e-030 8.35891e-029 6.3607e-030
0.00909961 -0.990613 -0.0737669
-0.0283695 -0.764255 -0.0629608
-0.0266161 -0.801929 -0.0627532
-0.0208023 -0.927343 -0.0633869
-4.64035e-031 -5.05812e-029 -1.14126e-030
-0.0172702 -0.834736 -0.0649267
-0.0133368 -0.788916 -0.0634558
1.16514e-029 4.48649e-029 3.25795e-032
-0.999541 -4.40414 -0.0209676
-0.592697 -2.78021 -0.00966934
-0.738899 -3.06802 0.00596666
-0.752275 -2.45056 -0.00746871
-0.371955 -1.55502 -0.0141719
-1.18609 -4.15047 -0.00811541
-0.883093 -3.90885 -0.0103051
-0.936397 -3.28243 0.00807886
1.06555e-030 2.43369e-029 1.79897e-030
2.04147e-017 5.41642e-016 4.65606e-017
-1.86478e-017 -4.59289e-016 -4.09333e-017
-0.0321722 -0.71755 -0.0573281
2.63035e-029 5.18127e-031 2.24916e-032
3.46808e-029 7.12169e-031 -2.6767e-032
4.5135e-029 6.80134e-031 2.08605e-031
1.95994e-016 4.98011e-018 1.92625e-020
-1.35319 -0.0371241 -0.00169611
-1.99119e-029 -5.09329e-030 -2.42953e-030
-1.32912 -0.0221211 -0.00117224
-5.088e-017 -6.89721e-019 3.50284e-019
-1.34131 -0.0175933 -0.0040438
-3.11435e-028 1.0627e-030 -3.53292e-032
0.95844 -0.00185019 0.000438578
-1.17898e-028 4.31504e-031 -2.46729e-031
0.935222 -0.00218229 0.0018015
0.886701 -0.00659443 0.00146652
-1.52237e-016 1.00866e-018 -3.80041e-019
0.823268 -0.0038598 0.00120323
0.859599 -0.00246634 0.00333618
1.04 -0.0030554 0.00228561
0.867264 -0.00533392 0.00275039
-0.84773 -3.2045 -0.133637
-1.1715 -3.25835 -0.34045
-1.39898 -4.62068 -0.0397011
-0.935572 -3.72829 -0.170656
-1.08997 -3.45406 -0.236275
-1.2161 -4.26533 -0.107658
-0.952286 -3.63832 -0.182072
-1.49895 -4.46254 -0.167574
-1.09038 -3.52214 -0.255027
-1.31698 -4.53348 -0.133277
8.2502e-030 1.5636e-030 -3.66138e-031
-1.70975 -0.395965 0.0565179
1.76782e-029 1.88111e-030 -6.00635e-031
7.37415e-029 6.81173e-030 -8.51577e-031
-1.02085 -0.187052 0.0535392
-2.79558e-016 -3.51909e-017 1.73433e-017
3.83504e-016 3.56702e-017 -1.97801e-017
-0.995439 -0.15713 0.0467719
-1.02391 -0.121604 0.0360911
-6.33598e-017 -4.71221e-018 3.72213e-018
-0.831898 -1.55521 -0.0549161
-1.68376 -1.68612 -0.0520621
-1.43059 -0.802138 0.0353257
-1.03248 -1.08171 -0.059675
-1.29821 -1.63585 -0.0374271
-1.15842 -1.19316 -0.00136412
-0.956812 -1.30975 -0.0569035
-1.56275 -1.21355 -0.0158857
-1.43127 -1.43079 -0.0564707
-1.3041 -1.025 -0.0200124
-1.57424 -0.0616602 -0.00919509
8.85976e-030 2.43355e-031 6.108e-032
7.40609e-029 1.60664e-030 -1.64707e-031
3.50405e-029 9.80298e-031 1.96855e-032
-0.910344 -0.0221945 -0.00416397
-0.895208 -0.0285262 0.00400944
-0.971406 -0.0268704 0.000695399
-6.78411e-016 -1.32498e-017 2.95964e-018
-4.86113e-016 -5.39766e-018 5.01366e-019
-2.90752e-029 -3.53664e-030 6.1696e-030
-0.616442 -4.05845 0.0319566
-0.627235 -3.57524 0.0113143
-0.924071 -3.94352 0.0192163
-0.842246 -4.44795 -0.00276615
-1.20938 -2.12402 -0.0425389
-0.380022 -2.1112 0.103663
-1.09014 -2.69634 -0.0536028
-0.682895 -2.75203 -0.0222205
-1.53138 -2.40799 -0.0108457
-0.872299 -2.17571 -0.0103073
-1.16741 -2.45676 -0.00779275
-1.9249 -0.0506855 0.00206681
-9.83586e-017 4.83147e-020 1.54521e-019
-1.94944 -0.0319292 0.00156445
-1.30413 -0.0369002 0.00542782
-6.99956e-029 -4.75201e-030 7.03962e-030
-1.3227 -0.0236219 0.00941588
-1.19015 -0.0306751 0.00549753
-2.17808 -0.0511578 0.0034231
-1.49209 -0.017065 0.00618984
1.42712e-029 4.48412e-031 1.61503e-031
-0.925102 -0.0302408 -0.00344925
-2.19187e-016 -5.92671e-018 2.29049e-018
-2.91747e-016 -6.01268e-018 -8.39256e-019
-2.48524 -0.149526 -0.00599762
-2.5815 -0.117261 -0.00479585
-2.3735 -0.0939551 -0.00630504
-2.25885 -0.0686485 -0.00227096
-2.63826 -0.145178 -0.0029611
-2.4837 -0.090928 -0.00255821
-2.56415 -0.0804716 -0.000117708
4.97455e-017 -1.32781e-018 -2.4538e-019
-1.08902e-028 1.38708e-030 4.28379e-031
-4.17094e-029 -1.2065e-031 1.2678e-031
0.954388 -0.00199202 0.000490525
-7.50373e-017 1.73092e-018 2.91827e-019
3.17656e-029 -4.93076e-030 1.47175e-029
0.676521 -0.0052814 -0.00392347
-7.84748e-017 -1.30657e-019 5.49574e-019
0.744732 -0.0052354 -0.00153096
0.684018 0.00582368 -0.0048877
-3.71056e-031 4.04385e-029 3.50371e-030
1.19177e-030 9.71435e-029 7.47332e-030
5.0919e-032 1.83429e-029 1.53516e-030
0.00700157 -0.801707 -0.0775673
-0.0052372 -0.818282 -0.070024
-0.000826306 -0.797552 -0.0666203
1.23698e-018 4.99459e-016 5.83114e-017
3.60925e-019 -2.45127e-016 -2.38263e-017
4.71326e-018 4.97614e-016 -2.21513e-017
-0.00747216 -0.783188 -0.0121083
0.0547071 -0.812802 -0.0161704
0.0523223 -0.800659 0.0325255
0.0704517 -0.812566 0.00145334
0.0310119 -0.775943 -0.010335
0.0269205 -0.793005 0.00958114
0.0454733 -0.788594 -0.00392104
0.0516932 -0.840406 0.00646918
0.0582751 -0.829909 -0.0100203
0.0607446 -0.858406 0.0209108
0.632179 -0.165554 -0.0718953
-5.89108e-029 7.34719e-030 1.90159e-030
0.924782 -0.050413 -0.00701979
0.867301 -0.161574 -0.00927925
0.575628 -0.0937026 -0.00336696
0.911613 -0.0862873 0.00404221
0.44772 -0.0675953 -0.046559
0.841823 -0.0806744 -0.0254592
0.62371 -0.0515706 -0.0182756
-2.77002e-017 -3.51127e-016 1.39406e-018
1.36123e-030 1.56601e-029 1.40887e-031
-0.0978407 -1.45691 0.00454961
-0.103002 -1.47543 -0.000427507
-5.76923e-017 -7.10478e-016 5.7783e-019
-0.210049 -1.57375 -0.014191
-0.191313 -1.55883 -0.0328867
-9.6048e-017 -3.82959e-016 1.88507e-018
3.39765e-030 2.11891e-029 -6.39235e-032
-0.39496 -1.6614 0.00420044
1.66291e-016 8.56613e-016 5.46214e-018
6.69899e-030 -1.49584e-029 -2.42049e-032
-0.275844 -1.65763 -0.0213348
3.12151e-016 1.61875e-015 2.72422e-017
-1.72926 -3.31741 -0.0720782
1.42672e-029 2.26122e-029 4.1071e-031
7.77751e-030 1.47621e-029 6.01179e-031
5.93538e-030 1.14793e-029 3.02659e-031
-1.19307 -2.00214 -0.0496721
-1.17846 -2.1839 -0.0949856
-1.15481 -2.17966 -0.0692269
-6.2466e-016 -1.04767e-015 -4.50262e-017
-3.95216e-015 -6.72286e-015 -2.20783e-016
-2.60882e-015 -4.80478e-015 -2.27682e-016
2.9789e-031 7.92308e-030 -3.29356e-031
4.38062e-031 2.12023e-029 -1.1749e-030
1.47902e-030 3.63535e-029 -2.22966e-030
-0.0216244 -0.518226 0.0230562
1.17234e-017 3.96672e-016 -1.99694e-017
1.81895e-018 4.51994e-017 -2.52503e-018
-0.0187527 -0.485882 0.0217477
-2.75024e-018 -8.37211e-017 4.96889e-018
-0.0166292 -0.604569 0.0316319
-0.0248432 -0.58788 0.0352902
-1.32369e-028 8.06388e-030 9.23305e-031
-1.28747e-028 1.97286e-030 6.94357e-031
0.948433 -0.0376679 0.00451403
6.06072e-017 -1.60427e-018 -6.64688e-019
-6.72535e-017 2.34627e-018 4.98756e-019
0.890369 -0.0413571 -0.00642538
-1.49828e-016 4.89507e-019 7.06139e-019
0.935894 -0.0132654 -0.0061457
0.840855 -0.0213299 -0.000639656
-1.36691e-019 -3.83918e-018 -1.41421e-019
0.029435 -1.16968 -0.0759402
3.80329e-030 1.83015e-028 1.06007e-029
0.0021601 -0.868669 -0.0489177
4.81964e-019 5.57797e-016 3.12375e-017
-0.0344889 -1.112 -0.0367767
-0.00710339 -0.882214 -0.059196
0.00646299 -1.09779 -0.0393525
-0.0312286 -1.12514 -0.0551625
1.72566 -2.98595 0.155442
1.47452 -2.08902 -0.395828
-0.316174 -4.40844 0.231011
0.608216 -3.66985 -0.155537
1.62949 -2.82609 -0.128271
0.862608 -4.20142 -0.0935042
1.27388 -3.71247 -0.119397
0.853723 -3.23547 -0.118077
1.23518 -3.12402 -0.292994
0.296149 -4.12529 0.0345925
0.0153498 -1.06886 -0.0723276
0.00410464 -1.19723 -0.0664909
-0.0197613 -1.08218 -0.0788392
-0.00146037 -0.939618 -0.0346422
0.000781498 -0.428588 0.0251761
0.0206753 -0.628551 0.00830361
0.0300867 -0.608227 0.0425849
0.000386618 -0.523023 0.0343978
0.0135177 -0.601627 0.0127747
0.014508 -0.537336 0.0349237
-0.00116145 -0.480812 0.0333641
0.0299715 -0.667163 0.0180759
0.0139578 -0.650467 0.0138773
0.021883 -0.585378 0.0421281
2.92115e-017 -2.38375e-016 -4.99802e-018
1.27297e-016 -2.85795e-017 1.01005e-017
0.588088 -0.471816 0.0181178
0.858497 -0.434228 -0.0147953
2.21235e-029 -1.68526e-029 1.11853e-029
0.36244 -0.577471 0.0392854
0.450976 -0.405022 0.0510212
0.398442 -0.330639 0.0667239
0.469152 -0.261783 0.0494143
0.792177 -0.476969 0.0157861
-3.0033e-018 -2.27166e-016 -1.78526e-017
-0.00487537 -0.861874 -0.0551281
-9.33411e-031 7.73912e-029 4.76053e-030
0.00710183 -0.797778 -0.0320581
-0.00798167 -0.727 -0.0539825
-5.38508e-018 -4.08701e-016 -4.4825e-017
-0.00212195 -0.697612 -0.0399892
0.00244408 -0.732879 -0.0545718
0.00416953 -0.839828 -0.0429876
0.00680758 -0.629474 -0.0371235
8.27895e-030 5.07174e-029 2.78322e-031
-0.49304 -4.47125 -0.0428918
7.39849e-030 1.67372e-028 4.55408e-031
1.32792e-029 8.03842e-029 1.1048e-030
-0.389174 -3.07813 -0.0180954
-4.42372e-016 -4.50229e-015 -2.424e-017
7.16116e-030 -4.0572e-029 8.41773e-030
-0.245499 -3.10797 -0.0246195
-0.371624 -3.11723 -0.0661531
-3.67871e-016 -3.96016e-015 -6.88156e-017
0.963719 -0.00125 0.000395455
-4.66418e-029 4.27432e-032 1.31534e-032
-4.83134e-029 1.13327e-031 1.08929e-031
-8.11705e-029 1.32815e-031 1.23025e-031
0.78842 0.000712604 -0.000449306
0.789391 -0.000951934 -0.002213
0.783019 0.000727928 -0.00190217
-4.867e-016 -1.71273e-019 1.27011e-018
3.11036e-029 -3.64079e-019 -5.94328e-031
6.32492e-017 2.32568e-020 -2.50137e-019
0.209051 -0.604361 -0.0293233
0.300957 -0.962283 -0.0445226
0.250653 -0.833458 0.067912
0.0923567 -0.892175 -0.0217838
0.311597 -0.898016 -0.0117401
0.260744 -0.716613 0.0225006
0.12257 -0.875463 -0.00788641
0.298868 -1.01055 0.00476984
0.192158 -0.885762 -0.0329303
0.185296 -0.931296 0.00336437
-1.66362e-028 4.60079e-031 -1.15506e-031
-1.01992e-028 2.68945e-031 3.51112e-031
-1.23205e-028 7.48434e-031 -5.45234e-032
0.952863 -0.00483208 -0.00197189
9.64716e-019 2.87422e-020 -1.93894e-021
8.94785e-019 -2.02609e-019 -2.95197e-021
0.828063 -0.00310127 -0.00327987
2.17744e-018 -1.61358e-021 3.06045e-031
0.769026 0.00137004 -0.00379741
0.849079 -0.00463212 -0.00166731
3.23715e-029 2.44368e-029 -2.83466e-030
-1.44996 -1.39677 0.199449
1.07105e-029 8.44069e-030 -1.44775e-030
-1.13532 -0.936848 0.142583
-0.972486 -0.602979 0.092759
2.56867e-015 2.03471e-015 -3.75152e-016
-1.5018 -1.09824 0.147766
-0.972333 -0.856786 0.15908
-0.919703 -0.628807 0.103111
-1.98198 -0.00696452 0.0094284
4.19174e-028 3.10268e-031 8.30808e-033
3.37069e-029 1.79196e-032 -3.47932e-031
-1.96993 0.00349416 0.000164638
-1.3833 -0.00787872 0.000530846
-1.28676 -0.0109311 0.0127498
-2.14581 0.00156855 0.00049075
-5.82889e-029 3.61511e-031 1.12173e-030
-1.18068 5.34789e-005 -0.0049477
-1.2803 0.00771506 0.00320981
-8.33277e-029 1.46692e-030 6.83064e-031
-3.14559e-029 1.45056e-030 5.74731e-031
-4.5916e-029 2.88993e-030 1.93443e-030
-1.1582e-016 2.65825e-018 2.40623e-018
-2.96566e-018 7.61473e-020 7.67614e-020
0.689637 -0.0169062 -0.00767834
-4.14158e-017 1.67776e-018 1.43505e-018
0.647149 -0.0283691 -0.0139976
0.661535 -0.031121 -0.0188362
-1.72871e-028 1.7979e-030 -2.38699e-031
0.838323 -0.00710315 -0.000978486
0.7163 -0.00923834 0.0029374
0.769783 -0.00839055 0.000559642
1.04506 -0.0215903 -0.000860238
1.06909 -0.0073719 0.0015404
0.96476 -0.0154533 0.000768273
-4.09504e-029 3.71387e-030 -1.43239e-031
-7.50297e-029 2.01298e-030 1.98419e-031
1.3793e-016 -7.75013e-018 -2.14993e-018
1.19067e-016 -8.56153e-018 -1.62387e-018
0.651146 -0.0438059 -0.00254157
1.07497e-017 -3.78044e-019 -2.53293e-019
0.666744 -0.0267828 -0.00957596
-1.35936e-028 -6.04008e-031 2.12096e-031
0.952172 0.0048001 -0.00016283
-9.21513e-029 -4.57294e-031 -4.68174e-032
0.666172 0.000941855 0.00122667
-2.37664e-016 -2.76557e-018 7.53956e-019
0.835166 0.00421995 -0.00124918
0.696359 0.00590698 0.000749829
0.998438 0.00434871 0.00175256
0.731588 0.00928405 -0.00347408
-3.83102e-029 2.38681e-031 -3.4554e-031
-1.09733e-028 1.34083e-031 -8.13912e-031
-1.27951e-028 9.09093e-031 -5.9851e-031
8.49648e-017 -1.43072e-018 2.42355e-018
-9.17341e-017 1.74036e-018 -2.15615e-018
0.680868 -0.00826262 0.0155788
-5.94569e-017 1.10111e-018 -1.10452e-018
0.703339 -0.00826301 0.011467
0.705926 -0.0102671 0.00692671
-2.1124e-029 5.25047e-029 3.75159e-030
0.415808 -1.4463 -0.128486
-2.66925e-029 4.59651e-029 1.06e-029
0.767337 -1.03753 -0.127816
0.356625 -0.854146 -0.0493481
7.05566e-017 -8.07066e-017 1.0363e-017
0.428172 -0.933249 -0.0724135
0.347584 -0.684896 -0.132719
0.636288 -1.36337 -0.186696
0.550316 -0.821916 -0.170535
-1.03759e-029 5.10282e-030 2.56644e-030
-9.85416e-029 9.49731e-030 2.28798e-030
-7.71783e-030 2.33683e-029 2.29189e-030
0.371865 -0.0917772 -0.0911323
0.356586 -0.0811233 -0.0567871
0.291774 -0.193987 -0.109539
5.19292e-030 7.87597e-030 -7.10387e-030
4.82548e-017 -6.37942e-017 -3.48862e-017
-7.32596e-017 4.24061e-017 2.8746e-017
-5.03957e-029 3.41741e-030 -8.1185e-031
3.64356e-029 2.31703e-018 -1.10971e-029
1.56628e-016 -6.35311e-018 1.34209e-019
0.721289 -0.0431558 0.00701103
-1.16475 -4.15918 -0.0813551
2.08038e-029 6.15079e-029 1.63429e-030
-1.55251 -4.08537 -0.0259689
4.58711e-029 1.54647e-028 1.24294e-030
-0.869157 -2.75384 -0.0814571
-1.44015 -4.20659 -0.0736491
-0.859319 -3.1014 -0.0571181
-1.08881 -3.02587 -0.0981904
1.57466e-016 4.83345e-016 1.59766e-017
-0.972347 -2.96084 -0.0451607
-1.43368 -4.16808 0.139702
-1.75657 -4.55981 -0.0195756
-1.16213 -3.24077 0.343465
-0.970819 -4.41766 0.231089
-1.65377 -4.5422 0.0604503
-1.31003 -4.15204 0.295259
-1.38063 -4.70218 0.0919783
-1.03579 -3.80606 0.460627
-1.58611 -4.51132 0.162589
0.953499 0.00230818 0.000908175
-2.08063e-028 -4.84378e-031 5.21446e-031
-8.91094e-029 -4.73567e-031 -2.11668e-032
0.969065 0.00261669 0.000269723
0.693924 0.00367227 0.000360189
0.669009 0.00612922 0.00188456
0.990932 0.00526064 0.000912389
9.87535e-029 -6.38649e-031 -1.20015e-029
0.883816 -0.00099845 -0.00219321
0.802302 0.00093712 0.00072962
-4.00818e-029 -7.68447e-032 -2.14398e-032
-1.02115e-028 1.45265e-031 -3.07293e-031
-1.85557e-028 -3.708e-031 -3.61326e-031
3.07886e-029 6.50237e-030 1.15117e-029
0.682255 0.0017524 -0.000354704
1.59686e-016 8.21574e-019 2.13747e-019
0.73426 -9.03672e-006 0.00419147
-7.12297e-017 -1.29195e-019 -2.60675e-019
0.670745 0.00175755 0.00177227
-5.72822e-029 1.75397e-032 4.82678e-032
-1.09169e-028 -5.09345e-032 -1.70008e-031
0.967296 -1.12758e-005 -0.00054583
-1.85258e-028 3.41667e-031 -4.00611e-031
1.9683e-016 2.09483e-019 3.63101e-019
0.855344 0.000495588 -0.00025923
-1.56114e-016 2.71983e-019 -2.68736e-019
0.868469 0.000818663 0.00227411
7.19778e-017 1.24847e-019 4.38352e-019
0.827102 -0.00258978 0.00204994
0.942955 0.00369183 -0.00213225
-2.06937e-028 -5.4479e-031 2.46519e-031
1.07202 0.00335936 0.000713432
0.76997 0.00275875 -0.00381381
0.962733 0.00458997 0.000977058
0.827461 0.000785666 0.00206
1.06643 0.00261675 8.3971e-006
0.843995 0.00411427 -0.000206831
3.34354e-029 5.17287e-031 -8.5225e-032
-0.932376 -0.0210292 0.00799349
2.34101e-016 3.60883e-018 -1.76993e-017
-1.22234 -0.0165502 0.00777138
-1.83909 -0.0418323 0.000971468
-2.58372e-030 8.81959e-029 -5.20094e-030
4.40882e-032 1.45581e-028 -9.11692e-030
0.0209398 -1.03544 0.0526743
-0.00296663 -1.03279 0.0532636
0.0261406 -0.833294 0.0535988
-3.5257e-018 1.72869e-016 -1.04124e-017
0.0182253 -0.908536 0.0542915
-0.000688996 -0.553765 -0.00489238
-0.0315398 -0.650354 -0.0211256
-0.00171979 -0.51504 0.00321839
-0.00119808 -0.590442 -0.00644422
-0.0147154 -0.616427 -0.0107624
-0.00343946 -0.526053 -0.00187869
-0.00110811 -0.579848 -0.0100472
-0.011369 -0.598814 -0.00666232
-0.00782634 -0.627238 -0.0119971
0.000131316 -0.550493 -0.00609299
-0.0205922 -0.753763 -0.0339697
-0.00380951 -0.651484 -0.0217471
-0.00283503 -0.702345 -0.019217
2.02519e-028 4.84954e-030 1.21313e-030
3.27209e-028 9.52567e-030 4.01622e-031
6.34889e-029 8.40352e-031 1.09109e-031
-1.56386 -0.0261924 -0.00787253
-1.47518 -0.032992 -0.00789708
-1.49691 -0.0254942 -0.00456385
-3.57106e-016 1.2285e-018 -1.0186e-018
-4.34566e-016 -8.92416e-018 -3.02758e-018
-4.14876e-016 -1.0434e-017 -3.03304e-018
7.58451e-030 3.13656e-029 -1.09388e-030
-1.47573 -4.09451 0.039665
4.09844e-029 1.99733e-028 -8.31635e-031
1.56981e-029 7.83209e-029 -2.36883e-030
-0.984757 -4.09747 0.140152
-2.56521e-030 -2.70748e-029 -1.21383e-029
-4.92744e-016 -2.6896e-015 1.18773e-016
-0.890582 -4.05069 0.0552371
-0.86267 -4.00622 0.147133
-3.62965e-016 -2.14825e-015 6.52509e-017
-0.0138315 -0.738757 -0.0287027
-0.0223526 -0.72673 -0.0248425
-0.0123623 -0.800559 -0.0388331
-0.00206564 -0.696243 -0.00942743
-2.2107e-028 -2.61411e-031 7.79828e-031
-3.8124e-029 1.95319e-031 1.23753e-031
-1.24237e-028 2.83748e-030 -4.0504e-032
3.87436e-029 -9.18828e-030 -8.29501e-030
0.819659 0.00708632 -0.00734743
5.14461e-029 -1.13546e-019 1.46936e-019
0.735054 -0.00950118 -0.00267303
3.60791e-029 -7.68581e-030 -1.01869e-029