# vtk DataFile Version 2.0 
output.vtk, Created by Freefem++, via gregorio
ASCII
DATASET UNSTRUCTURED_GRID
POINTS 7451 double
-3.79965 2.23652 0.040848
-4.13429 2.05574 0.276253
-4.09122 2.24524 0.070091
-4.01836 2.27766 0.330071
-3.96697 2.14613 0.158551
-3.94543 2.24088 0.0554695
-3.90901 2.25709 0.185459
-4.11275 2.15049 0.173172
-4.07633 2.1667 0.303162
-4.05479 2.26145 0.200081
-4.81817 0.732763 -0.840268
-4.76136 0.37264 -0.736193
-5.12328 0.495929 -0.550642
-4.73872 0.559667 -0.434419
-4.78977 0.552702 -0.788231
-4.97072 0.614346 -0.695455
-4.77845 0.646215 -0.637344
-4.94232 0.434285 -0.643417
-4.75004 0.466153 -0.585306
-4.931 0.527798 -0.49253
-7.58244 -0.891248 -0.453516
-8 -0.559587 0.124298
-7.26059 -0.264226 0.250847
-7.58828 -0.999993 0.00381
-7.79122 -0.725418 -0.164609
-7.42152 -0.577737 -0.101334
-7.58536 -0.94562 -0.224853
-7.6303 -0.411906 0.187573
-7.79414 -0.77979 0.064054
-7.42444 -0.632109 0.127328
-5.46564 0.048234 0.998836
-5.51396 -0.351144 0.936321
-5.02851 -0.125769 0.598961
-5.56665 -0.148801 0.504295
-5.4898 -0.151455 0.967578
-5.24708 -0.0387675 0.798898
-5.51614 -0.0502835 0.751565
-5.27124 -0.238457 0.767641
-5.5403 -0.249972 0.720308
-5.29758 -0.137285 0.551628
-4.20269 -2.80441 0.102764
-3.63085 -2.57461 -0.287529
-4.13183 -2.29387 0.255347
-4.14432 -2.47254 -0.273935
-3.91677 -2.68951 -0.0923825
-4.16726 -2.54914 0.179055
-4.1735 -2.63848 -0.0855855
-3.88134 -2.43424 -0.016091
-3.88759 -2.52358 -0.280732
-4.13807 -2.38321 -0.009294
-6.25062 -0.085247 0.575431
-6.51584 -0.423084 -0.15939
-6.46019 0.447486 0.293263
-6.75561 -0.174737 0.413139
-6.38323 -0.254165 0.20802
-6.35541 0.181119 0.434347
-6.88822 -0.343655 0.0457285
-6.86039 0.09163 0.272055
-6.48801 0.012201 0.0669365
-4.88162 0.371746 0.655425
-4.51246 -0.112716 0.623981
-4.65723 0.09269 0.995695
-4.69704 0.129515 0.639703
-4.95507 0.122989 0.627193
-4.76942 0.232218 0.82556
-4.77049 -0.119243 0.611471
-4.58484 -0.010013 0.809838
-4.84287 -0.0165395 0.797328
-3.75099 1.20677 0.090288
-3.64118 0.745776 0.266863
-4.09568 0.790235 0.315934
-3.78936 1.07086 0.69071
-3.69609 0.976272 0.178575
-3.92333 0.998502 0.203111
-3.77017 1.13882 0.390499
-3.86843 0.768006 0.291399
-3.71527 0.908319 0.478787
-3.94252 0.930549 0.503322
-2.18572 0.40145 0.915881
-1.75478 0.245881 0.526965
-1.94554 -0.013967 0.999902
-1.76886 0.356252 0.93439
-1.97025 0.323665 0.721423
-2.06563 0.193741 0.957891
-1.97729 0.378851 0.925135
-1.85016 0.115957 0.763433
-1.76182 0.301067 0.730678
-1.8572 0.171143 0.967146
-5.06116 0.824959 0.710182
-4.88551 0.773989 0.80113
-4.92155 0.772883 0.437198
-5.01596 0.602336 0.857802
-4.97333 0.799474 0.755656
-4.99135 0.798921 0.57369
-5.03856 0.713647 0.783992
-4.90353 0.773436 0.619164
-4.95074 0.688163 0.829466
-4.96876 0.687609 0.6475
-2.34262 2.51752 0.051733
-2.4672 2.85727 -0.311185
-2.29554 2.81673 0.086134
-2.65762 2.74748 0.16058
-2.40491 2.6874 -0.129726
-2.31908 2.66712 0.0689335
-2.50012 2.6325 0.106157
-2.38137 2.837 -0.112526
-2.56241 2.80238 -0.0753025
-2.47658 2.7821 0.123357
-3.50303 -3.76846 -0.636668
-3.49422 -3.29308 -1.15018
-3.31427 -3.71149 -1.25136
-2.90724 -3.34218 -0.858121
-3.49863 -3.53077 -0.893424
-3.40865 -3.73997 -0.944014
-3.20514 -3.55532 -0.747394
-3.40425 -3.50228 -1.20077
-3.20073 -3.31763 -1.00415
-3.11076 -3.52683 -1.05474
-4.0054 2.49156 -0.125899
-3.5956 2.50054 -0.194198
-3.83412 2.54803 0.0159
-3.8005 2.49605 -0.160049
-3.90253 2.36404 -0.0425255
-3.91976 2.5198 -0.0549995
-3.69763 2.36853 -0.076675
-3.71486 2.52428 -0.089149
-3.81689 2.39228 0.028374
-3.73452 -3.68531 -1.05781
-3.52439 -3.6984 -1.15459
-3.61437 -3.4892 -1.104
-3.61877 -3.72688 -0.84724
-6.37864 0.944563 0.328331
-6.25891 0.813305 0.581838
-6.65332 0.772267 0.635298
-6.31878 0.878934 0.455085
-6.41941 0.696025 0.310797
-6.51598 0.858415 0.481815
-6.35955 0.630395 0.43755
-6.45612 0.792786 0.608568
-6.55675 0.609877 0.46428
1.62066 -0.841518 -0.540229
1.89324 0.238579 -0.195511
2.01627 -0.690819 -0.723027
2.25185 -0.211859 0.261412
1.75695 -0.30147 -0.36787
1.81846 -0.766169 -0.631628
1.93625 -0.526689 -0.139408
1.95475 -0.22612 -0.459269
2.07254 0.01336 0.0329505
2.13406 -0.451339 -0.230807
-2.56949 2.06853 0.305158
-2.91403 1.60744 0.564909
-3.02709 2.08175 0.021586
-2.87501 2.07662 0.630995
-2.74176 1.83799 0.435033
-2.79829 2.07514 0.163372
-2.72225 2.07258 0.468077
-2.97056 1.8446 0.293247
-2.89452 1.84203 0.597952
-2.95105 2.07919 0.32629
-5.39985 0.358755 0.933432
-5.34934 0.453264 0.543553
-5.56264 0.558471 0.829524
-5.70805 0.297641 0.954678
-5.37459 0.40601 0.738492
-5.48124 0.458613 0.881478
-5.55395 0.328198 0.944055
-5.45599 0.505868 0.686538
-5.52869 0.375452 0.749116
-5.63535 0.428056 0.892101
-4.17913 0.323834 -0.696515
-4.36183 0.516245 -0.417662
-4.60784 0.019305 -0.528365
-4.46586 0.364911 -0.72315
-4.27048 0.42004 -0.557088
-4.39349 0.17157 -0.61244
-4.3225 0.344372 -0.709832
-4.48483 0.267775 -0.473013
-4.41384 0.440578 -0.570406
-4.53685 0.192108 -0.625757
-5.9377 0.438799 -0.558905
-5.87927 0.529091 -0.848565
-6.25926 0.555743 -0.831354
-6.07929 0.245277 -0.969453
-5.90849 0.483945 -0.703735
-6.09848 0.497271 -0.695129
-6.00849 0.342038 -0.764179
-6.06927 0.542417 -0.839959
-5.97928 0.387184 -0.909009
-6.16928 0.40051 -0.900404
-3.64743 2.72944 0.180305
-3.74077 2.63873 0.0981025
-3.72354 2.48298 0.110576
-3.62151 2.61499 -0.0069465
-3.98168 0.388062 0.141859
-3.76543 0.320245 0.603448
-3.81143 0.566919 0.204361
-3.70331 0.533011 0.435156
-4.03868 0.589149 0.228897
-3.87356 0.354154 0.372653
-3.93055 0.55524 0.459691
-6.17342 0.027823 -0.593282
-6.59748 0.255766 -0.966739
-6.35964 0.547779 -0.240473
-6.21634 0.291783 -0.712318
-6.42837 0.405755 -0.899047
-6.30945 0.551761 -0.535914
-6.38545 0.141794 -0.78001
-6.26653 0.287801 -0.416878
-6.47856 0.401772 -0.603606
-5.98474 0.742767 -0.66955
-5.96122 0.590783 -0.614227
-6.122 0.649255 -0.750452
-5.93201 0.635929 -0.759057
-5.86659 0.345457 -0.129882
-5.96054 -0.099592 -0.035866
-6.02 0.18664 -0.361582
-6.11312 0.446618 -0.185177
-5.91357 0.122933 -0.082874
-6.06698 -0.0358845 -0.314574
-6.16009 0.224094 -0.13817
-1.10421 0.363269 -0.931684
-0.773878 0.737644 -0.67519
-0.520452 0.269543 -0.962988
-0.384634 0.008888 -0.353445
-0.939043 0.550457 -0.803437
-0.812329 0.316406 -0.947336
-0.74442 0.186079 -0.642564
-0.647165 0.503594 -0.819089
-0.579256 0.373266 -0.514317
-0.452543 0.139215 -0.658216
-2.85287 -3.00249 -1.21636
-3.23054 -2.92385 -1.196
-3.06719 -3.3306 -1.25351
-2.88006 -3.17233 -1.03724
-3.06889 -3.13301 -1.02706
-2.98722 -3.33639 -1.05581
-3.0417 -2.96317 -1.20618
-2.96003 -3.16654 -1.23493
-3.14886 -3.12722 -1.22475
-3.38618 -2.05134 -0.098565
-2.37808 -2.56123 -0.134541
-2.49252 -2.47812 0.422472
-2.41131 -1.89586 0.044632
-2.88213 -2.30628 -0.116553
-2.93935 -2.26473 0.161954
-2.89875 -1.9736 -0.0269665
-2.4353 -2.51967 0.143966
-2.39469 -2.22855 -0.0449545
-2.45192 -2.18699 0.233552
-1.85713 -0.413967 0.42138
-1.65927 -0.390905 0.920431
-1.2503 -0.077569 0.384148
-1.80595 -0.084043 0.474172
-1.70702 -0.072512 0.723698
-1.50254 0.084156 0.455557
-1.7582 -0.402436 0.670905
-1.55371 -0.245768 0.402764
-1.45478 -0.234237 0.652289
-2.09043 2.55218 0.167395
-2.0659 2.66009 -0.048555
-2.19298 2.68445 0.126765
-2.18072 2.73841 0.0187895
-2.07816 2.60614 0.05942
-2.21652 2.53485 0.109564
-2.20426 2.58881 0.001589
-4.01665 2.44382 0.136481
-3.97233 2.67361 0.084512
-3.92539 2.49592 0.0761905
-3.99449 2.55872 0.110496
-4.01103 2.46769 0.005291
-3.90323 2.61082 0.050206
-3.98887 2.58259 -0.0206935
-3.92754 1.80484 -0.220103
-4.28096 1.83407 -0.225431
-4.13592 1.88983 -0.461486
-4.146 2.03152 -0.278406
-4.10425 1.81945 -0.222767
-4.03173 1.84734 -0.340795
-4.03677 1.91818 -0.249254
-4.20844 1.86195 -0.343458
-4.21348 1.9328 -0.251918
-4.14096 1.96068 -0.369946
-4.04038 -5 0.949212
-3.62468 -5 1.26221
-3.84559 -4.54287 1.07336
-3.71487 -5 0.728948
-3.83253 -5 1.10571
-3.94299 -4.77144 1.01129
-3.87763 -5 0.83908
-3.73513 -4.77144 1.16779
-3.66977 -5 0.99558
-3.78023 -4.77144 0.901156
-1.37334 0.812082 -0.583544
-0.975724 0.961208 -0.275823
-1.19336 -0.166381 -0.273753
-1.17453 0.886645 -0.429683
-1.07361 0.774863 -0.629367
-1.28335 0.32285 -0.428648
-0.874801 0.849426 -0.475506
-1.08454 0.397413 -0.274788
-0.983618 0.285631 -0.474471
-3.83515 -1.82017 -0.741539
-3.34976 -1.58414 -0.592596
-3.50394 -2.07825 -1.02313
-3.59245 -1.70215 -0.667067
-3.66955 -1.94921 -0.882335
-3.61067 -1.93575 -0.420052
-3.42685 -1.83119 -0.807863
-3.36797 -1.81774 -0.345581
-3.44506 -2.06479 -0.560848
-2.72946 0.769161 0.094533
-2.75119 0.681139 -0.326037
-2.98528 1.02631 -0.281501
-3.08113 0.734324 -0.34324
-2.74032 0.72515 -0.115752
-2.85737 0.897737 -0.093484
-2.90529 0.751742 -0.124353
-2.86823 0.853726 -0.303769
-2.91616 0.707731 -0.334639
-3.03321 0.880319 -0.31237
-2.94023 -2.47675 -0.674772
-3.14499 -2.03044 -0.633684
-3.22209 -2.2775 -0.848951
-3.16321 -2.26404 -0.386669
-3.03914 -4.25341 0.579285
-2.64287 -3.80807 0.20828
-2.47531 -4.18593 0.714333
-2.97264 -3.41482 0.618231
-2.84101 -4.03074 0.393783
-2.75723 -4.21967 0.646809
-3.00589 -3.83412 0.598758
-2.55909 -3.997 0.461307
-2.80776 -3.61144 0.413255
-2.72397 -3.80037 0.666282
-2.39684 -0.595487 -0.803365
-1.98884 -0.54749 -0.836812
-2.24172 -0.466498 -0.098067
-2.21295 -0.01831 -0.514797
-2.19284 -0.571489 -0.820088
-2.31928 -0.530992 -0.450716
-2.3049 -0.306899 -0.659081
-2.11528 -0.506994 -0.46744
-2.1009 -0.2829 -0.675804
-2.22734 -0.242404 -0.306432
-3.36239 -4.55484 -1.31864
-3.11171 -4.25429 -0.873787
-2.86199 -4.55394 -1.36046
-2.79118 -5 -0.96439
-3.23705 -4.40456 -1.09621
-3.11219 -4.55439 -1.33955
-3.07678 -4.77742 -1.14151
-2.98685 -4.40411 -1.11712
-2.95144 -4.62714 -0.919088
-2.82658 -4.77697 -1.16243
-3.88203 2.65205 -0.416886
-3.48121 2.84727 -0.340672
-3.82273 3 -0.474998
-3.72541 2.76868 -0.627028
-3.68162 2.74966 -0.378779
-3.85238 2.82603 -0.445942
-3.80372 2.71037 -0.521957
-3.65197 2.92364 -0.407835
-3.60331 2.80798 -0.48385
-3.77407 2.88434 -0.551013
[...]
POINT_DATA 7451
 
FIELD FieldData 2
velocity 3 7451 double
-0.122087 -0.348113 0.00932217
1.5153e-030 3.42136e-030 -1.84571e-031
4.40892e-031 1.20389e-030 -5.45542e-032
1.26637e-030 3.40089e-030 -1.68499e-031
-0.0831263 -0.203015 0.0110969
-0.0725531 -0.199857 0.0090124
-0.079988 -0.23133 0.0119166
-1.87121e-018 -4.52432e-018 3.05454e-019
5.64031e-018 1.40087e-017 -1.0673e-018
1.85938e-029 -7.97768e-030 -4.33642e-030
8.773e-030 2.93161e-030 -1.94471e-031
-0.4094 -0.109183 0.000925278
-0.624251 -0.142361 0.00719541
-0.70339 -0.230183 0.00584201
-0.226341 -0.0768828 0.00689018
-0.305362 -0.0930596 0.00968961
-0.404001 -0.146755 0.00914772
-0.533003 -0.134157 0.00680014
-0.59025 -0.174387 0.00511803
-0.673362 -0.192287 0.00812386
9.41247e-029 -2.87626e-031 2.71233e-032
-0.844095 0.00726552 -0.00061507
-1.09988 2.2559e-005 -0.000575542
5.43671e-029 -2.17985e-031 5.18151e-032
-0.550065 0.0033857 5.84314e-005
-0.832528 -2.09755e-005 -0.00252238
-1.33934e-016 2.4586e-019 -3.15829e-019
-1.0034 0.00125904 -6.61534e-005
-0.477786 0.0063111 -0.000807264
-0.739417 0.00190833 -0.000175381
3.2042e-029 3.31032e-030 5.75496e-032
2.11005e-029 1.34804e-030 2.76058e-031
-0.697845 -0.10398 -0.0137088
-0.881377 -0.0616363 -0.00506051
-1.05484e-016 -6.69715e-018 -1.47247e-018
-0.421565 -0.048143 -0.00392505
-0.524683 -0.0334769 -0.00349365
-0.402416 -0.0312739 -0.00760943
-0.503925 -0.0232008 -0.0049451
-0.795222 -0.0850779 -0.00846156
-4.2149e-030 -6.45206e-029 1.52894e-030
0.0267546 0.439985 0.00455199
-4.59779e-030 -7.62479e-029 2.0162e-030
-8.12785e-031 -9.71056e-030 -2.19418e-032
0.0241236 0.296814 -0.0024126
-6.45263e-017 -5.90614e-016 1.50813e-017
-4.07828e-018 -4.13373e-017 4.36111e-019
0.0273372 0.350288 -0.00421238
0.0225074 0.260237 0.00113261
-5.86425e-017 -6.28009e-016 8.61253e-018
-0.827764 -0.0162094 -0.00240158
-0.999157 -0.00962886 -0.00215039
-0.899984 -0.0128736 -0.000970056
-1.00658 -0.00263947 -0.00099351
-1.12726 -0.0171944 -0.00313883
-0.981178 -0.0170662 -0.0023124
-1.11121 -0.00466613 -0.00378269
-1.16501 -0.00252981 -0.000503273
-1.26425 -0.0169268 -0.00156085
-0.561704 -0.185469 0.00462626
-0.56855 -0.10166 -0.0201523
1.82409e-029 4.99823e-030 1.91647e-031
-0.621499 -0.164373 -0.00811056
-0.686633 -0.153385 -0.0038317
-0.308687 -0.108604 0.00320326
-0.632951 -0.111267 -0.0188396
-0.341237 -0.0930248 -0.0102101
-0.388975 -0.0839048 -0.00822841
-0.427477 -0.451316 -0.0206017
-0.463125 -0.262317 -0.045325
-0.602117 -0.332997 -0.0127419
-0.237665 -0.298299 0.000352031
-0.461934 -0.381891 -0.0357824
-0.516375 -0.394388 -0.0178858
-0.390987 -0.413669 -0.0136018
-0.550144 -0.306396 -0.0289113
-0.383881 -0.325334 -0.0211371
-0.420151 -0.332171 -0.00563014
-1.66544e-029 -6.00865e-030 9.82786e-031
0.346598 0.0497375 -0.00527197
-2.00564e-029 -5.7639e-030 -3.82335e-031
-4.24006e-030 -1.9889e-031 1.1708e-032
0.186773 0.0276903 -0.00500894
5.98971e-017 4.30287e-018 2.40677e-018
3.19827e-018 1.96445e-019 -1.43065e-020
0.211978 0.0157824 -0.000919291
0.19783 0.0101573 0.00142775
-6.88429e-017 -3.11732e-019 -9.15284e-019
2.49176e-017 1.15853e-017 -7.03557e-019
2.68733e-030 1.22542e-030 -5.24149e-032
-0.506674 -0.209244 0.00880945
2.87087e-030 1.17375e-030 -5.45276e-032
1.24626e-017 6.24753e-018 -3.93347e-019
-0.285656 -0.126231 0.00669143
9.80445e-017 4.40551e-017 -3.60972e-018
-0.285754 -0.137841 0.00775233
1.51887e-016 7.78281e-017 -3.47503e-018
-0.31515 -0.134521 0.00584165
-0.0331519 -0.236996 -0.0129689
-0.020357 -0.252557 -0.00851196
-0.0125794 -0.236163 -0.00658053
-0.0520181 -0.49844 -0.0142415
-0.0289009 -0.267997 -0.0107345
-0.0231148 -0.237686 -0.00993793
-0.0454047 -0.378777 -0.0154266
-0.0187039 -0.270468 -0.00905052
-0.0380246 -0.396916 -0.0117685
-0.0319734 -0.383014 -0.0110123
0.0115538 0.276448 0.00879927
-6.46513e-031 -2.04886e-029 -1.03388e-030
-3.24423e-031 -1.55875e-029 -8.81198e-031
-0.0017441 0.227989 0.0130101
0.0064765 0.145245 0.0080353
0.00565162 0.142329 0.00804188
0.00487538 0.280703 0.0121191
2.16188e-029 2.06244e-030 6.27728e-029
0.00234238 0.134892 0.00910144
0.00117155 0.115992 0.00822159
9.40974e-031 3.47723e-030 -9.61326e-032
-0.0905953 -0.373015 0.00391915
-0.0484775 -0.230191 0.00488238
-0.0581092 -0.234194 0.00620628
-0.0603166 -0.194665 0.00604647
-0.0276518 -0.117626 0.0033398
-0.110236 -0.373295 0.00574338
-0.0760639 -0.331037 0.00562503
-0.0822874 -0.287824 0.00741522
-2.60484e-031 -4.58012e-030 -2.21996e-031
-3.6782e-018 -6.83107e-017 -4.95099e-018
3.57428e-018 6.11548e-017 4.34054e-018
0.00778389 0.138129 0.00666655
9.99933e-030 1.7057e-031 2.92774e-033
1.32474e-029 2.20623e-031 1.61325e-032
1.72813e-029 1.84102e-031 4.32608e-032
6.93526e-017 1.5321e-018 8.85695e-020
-0.518839 -0.0127481 -0.000543216
-4.81744e-030 -4.39912e-029 -2.22215e-029
-0.509369 -0.00646236 -0.000680245
-1.81191e-017 -1.83693e-019 1.73938e-019
-0.518304 -0.00583105 -0.0010503
-1.45727e-028 3.69301e-031 -6.93782e-032
0.482842 0.000547781 0.000710407
-5.39005e-029 3.90523e-032 -1.26547e-031
0.470418 -0.00216988 0.00129226
0.414232 -0.00127847 0.000285357
-6.64867e-017 3.93241e-020 -3.01429e-019
0.373939 -0.000237227 0.00134393
0.391988 0.000679093 0.000859815
0.532669 -0.00105384 0.00161737
0.395358 -0.0011636 0.00172358
-0.0800439 -0.327742 -0.0271637
-0.117825 -0.337197 -0.0321888
-0.169988 -0.536342 -0.0246689
-0.0901331 -0.402941 -0.0200493
-0.106447 -0.359453 -0.032479
-0.13404 -0.481944 -0.0317601
-0.0932167 -0.395882 -0.0277601
-0.177302 -0.515138 -0.0353513
-0.107449 -0.377271 -0.026569
-0.151067 -0.547577 -0.0292169
3.0254e-030 3.99928e-031 -6.68537e-032
-0.666338 -0.122965 0.00994901
6.54201e-030 5.2415e-031 -1.15466e-031
2.90247e-029 1.93573e-030 -1.49712e-031
-0.375726 -0.0497502 0.0103072
-9.77077e-017 -7.76418e-018 3.43012e-018
1.35937e-016 6.2218e-018 -3.9802e-018
-0.363367 -0.0439884 0.00891761
-0.379211 -0.0310366 0.0070166
-2.21663e-017 -7.14343e-019 7.81273e-019
-0.401852 -0.102133 -0.0145037
-0.683229 -0.232549 -0.0113857
-0.725308 -0.113011 -0.00668247
-0.407239 -0.118062 -0.00517564
-0.564217 -0.169969 -0.0140299
-0.580063 -0.118569 -0.0114103
-0.409107 -0.11436 -0.00961215
-0.739573 -0.174503 -0.0114893
-0.575921 -0.181566 -0.00667407
-0.590929 -0.127576 -0.00635942
-0.624918 -0.0136466 0.00182698
3.2547e-030 3.87538e-032 -6.24959e-033
2.89734e-029 3.57219e-031 -1.46935e-031
1.33436e-029 1.81978e-031 -2.62692e-032
-0.337016 -0.0033985 0.0012401
-0.334534 -0.00632254 0.00279487
-0.364977 -0.00428692 0.00198746
-2.39203e-016 -1.9303e-018 2.07933e-018
-1.72988e-016 -2.55203e-019 1.02765e-018
-1.072e-029 -2.08753e-029 4.68599e-029
-0.058532 -0.397002 0.00532754
-0.0556133 -0.321107 0.00552519
-0.0863503 -0.369648 0.0065833
-0.0792251 -0.414696 0.00419904
-0.736935 -0.149517 -0.0411716
-0.405897 -0.0433486 -0.018329
-0.60016 -0.201369 -0.0458139
-0.46042 -0.145312 -0.0359023
-0.690463 -0.259883 -0.0288099
-0.610679 -0.0962379 -0.0338055
-0.543399 -0.208616 -0.0198971
-0.808371 -0.0104408 0.000536046
-3.65826e-017 4.23633e-020 8.21557e-020
-0.808886 -0.00917503 0.00340367
-0.505752 -0.00740323 0.0029744
-2.42669e-029 -2.98221e-029 5.88169e-029
-0.505901 -0.00585262 0.00451082
-0.459532 -0.00799638 0.00170698
-0.938782 -0.0127504 0.00299371
-0.58905 -0.00291419 0.00300057
5.25969e-030 9.29097e-032 -7.03791e-033
-0.341602 -0.00648163 0.00196295
-7.71526e-017 -1.26882e-018 1.70723e-018
-1.01902e-016 -8.50718e-019 6.37181e-019
-1.10899 -0.051258 0.00268378
-1.24195 -0.0416415 -0.00316458
-1.05594 -0.0267293 0.000617642
-0.975196 -0.022487 0.00333783
-1.24015 -0.0505513 0.000137265
-1.13385 -0.0263945 -0.00143882
-1.18191 -0.027447 0.00138928
1.97813e-017 -1.59293e-019 -3.13938e-019
-4.75644e-029 4.52856e-031 4.66646e-031
-1.76418e-029 5.2886e-032 9.28229e-032
0.474055 -0.00451905 -0.000888595
-3.04299e-017 2.88441e-019 4.44204e-019
1.31098e-029 -3.1607e-029 9.5543e-029
0.289901 -0.00294365 -0.00292751
-3.13661e-017 1.045e-019 3.21528e-019
0.324373 -0.00362235 -0.00234029
0.292988 9.56985e-005 -0.00200273
7.65821e-032 -7.04759e-030 -5.48388e-031
-3.20941e-031 -2.18745e-029 -1.3138e-030
-6.43272e-033 -2.59345e-030 -1.94346e-031
-0.00129491 0.118172 0.00917771
0.00204137 0.125122 0.00992594
5.80505e-005 0.114135 0.00805711
-7.18763e-019 -5.74202e-017 -6.92609e-018
-8.10047e-020 2.62704e-017 2.38248e-018
-1.3196e-018 -5.56275e-017 2.54862e-018
0.0218891 0.726185 -0.00401924
-0.0257934 0.526695 0.000819185
-0.0278466 0.708279 -0.0319416
-0.0282885 0.67275 -0.0151077
-0.00741296 0.770303 -0.000618525
-0.00389373 0.913559 -0.0204512
-0.00667408 0.872803 -0.0113791
-0.028244 0.67515 -0.012197
-0.0271966 0.600791 -0.00460278
-0.0295243 0.720638 -0.0248057
0.365414 0.158729 0.0229705
-2.58166e-029 -1.58028e-030 -1.55285e-031
0.454029 0.014546 -0.00248003
0.406561 0.102581 0.000194354
0.245401 0.00660764 -0.00079495
0.420426 0.0318951 -0.00150778
0.195331 0.00474422 0.00836396
0.410947 0.0510795 -0.0017853
0.267564 0.000574544 -0.00324155
-1.98037e-018 -2.70622e-017 -1.13456e-018
1.07977e-031 1.22643e-030 5.71633e-032
-0.00760425 -0.119979 -0.00419993
-0.00812977 -0.115272 -0.00377937
-4.19411e-018 -5.20339e-017 -2.08235e-018
-0.0165997 -0.129576 -0.00708393
-0.0153035 -0.12207 -0.00756343
-7.42078e-018 -3.00081e-017 1.09945e-018
2.76704e-031 1.75864e-030 -3.64352e-032
-0.0311703 -0.133327 0.00414083
1.24867e-017 6.6328e-017 -1.57237e-018
1.99809e-029 -6.57643e-030 -1.192e-031
-0.021186 -0.131126 0.00184102
2.18483e-017 1.18711e-016 -2.43329e-018
-0.18346 -0.295379 0.00777102
1.43801e-030 2.01255e-030 -1.08627e-031
6.78325e-031 1.09045e-030 -5.37225e-032
5.09188e-031 8.86859e-031 -4.51713e-032
-0.112679 -0.169928 0.00928306
-0.103027 -0.164958 0.00817559
-0.0999821 -0.169797 0.00845506
-5.13921e-017 -7.75992e-017 5.62653e-018
-3.22224e-016 -5.11685e-016 3.69108e-017
-1.97671e-016 -3.32295e-016 2.26399e-017
-1.25485e-031 -3.65804e-030 1.45454e-031
-1.89544e-031 -1.04448e-029 4.68187e-031
-5.99656e-031 -1.81727e-029 9.43751e-031
0.00983185 0.384628 -0.0118619
-3.41276e-018 -1.46661e-016 6.71061e-018
-5.61254e-019 -1.68331e-017 8.48576e-019
0.00633827 0.225657 -0.00790158
8.52833e-019 3.15532e-017 -1.74791e-018
0.00573005 0.274026 -0.0120933
0.00869339 0.270048 -0.0133236
-5.49524e-029 -7.12049e-032 1.23485e-030
-5.77142e-029 3.59478e-031 6.23586e-031
0.477528 -0.0112818 5.38746e-007
2.51745e-017 3.44575e-020 -6.39548e-019
-2.73882e-017 1.58984e-019 6.23735e-019
0.382068 -0.00311456 -0.0083011
-6.22665e-017 5.37566e-019 6.18058e-019
0.418297 -0.00175762 -0.0059659
0.368598 -0.00549782 -0.00335661
6.05819e-020 8.98897e-019 4.26155e-020
0.00728342 0.40373 0.016532
-2.15674e-030 -6.00132e-029 -2.12768e-030
0.00837064 0.219878 0.0104994
-4.37805e-018 -7.12806e-017 -9.20467e-018
0.01993 0.396065 0.00916525
0.00766769 0.187232 0.0122488
0.0149903 0.593107 0.00944718
0.0160037 0.384926 0.0141327
0.0202325 -0.0546622 -0.0472668
0.0191962 -0.00981115 -0.0330524
-0.12823 -0.208538 -0.0346835
-0.134555 -0.0997314 -0.0461269
0.0179866 -0.0418914 -0.0448425
-0.0616355 -0.157834 -0.0445789
-0.0622627 -0.0998884 -0.0536206
-0.0452032 -0.0925906 -0.0313884
-0.0509785 -0.0526018 -0.0400467
-0.125573 -0.157731 -0.0409388
-0.00173635 0.367864 0.0173275
0.0069507 0.414748 0.0174358
0.00725682 0.225344 0.0135224
0.00917506 0.588082 0.012087
0.000706289 0.648857 -0.0247235
-0.0161716 0.680182 -0.012175
-0.0170311 0.509464 -0.0274721
-0.000742737 0.715386 -0.0374659
-0.00827217 0.713954 -0.0185388
-0.00966982 0.629992 -0.0282882
0.000367007 0.682815 -0.0316731
-0.0187933 0.637248 -0.0205206
-0.01038 0.744113 -0.0222546
-0.0127233 0.642806 -0.0334387
1.77648e-017 5.36037e-017 3.70182e-018
5.66747e-017 1.40994e-018 1.25342e-019
0.400004 0.445851 -0.0204309
0.300355 0.107597 -0.0256607
1.34847e-029 3.65479e-029 4.13028e-029
0.264818 0.29493 -0.0147842
0.200647 0.112005 -0.0179537
0.298347 0.168608 -0.0169087
0.230524 0.0572035 -0.0124039
0.383137 0.253216 -0.0285708
8.12159e-019 2.056e-017 1.63419e-018
0.00204109 0.209566 0.00849511
1.90181e-031 -1.3231e-029 -5.06976e-031
-0.00171435 0.156905 0.00306934
0.00233909 0.0986885 0.00580365
1.33354e-018 3.18573e-017 4.26948e-018
0.000613601 0.0886353 0.00341379
-5.11422e-006 0.0982406 0.00536654
-0.000662986 0.187285 0.00511976
-0.00105426 0.0774304 0.00292741
6.17686e-031 3.34658e-030 -7.01451e-032
-0.0414526 -0.323196 0.00215311
5.77294e-031 1.07458e-029 -1.08955e-031
9.85165e-031 4.88635e-030 -8.80334e-032
-0.0278794 -0.190584 0.00373635
-2.8641e-017 -2.43132e-016 5.59408e-018
2.22244e-029 -4.83888e-030 1.54963e-029
-0.0179775 -0.184346 0.00224865
-0.0258393 -0.17663 0.00181787
-2.29202e-017 -1.97909e-016 2.96793e-018
0.513517 -0.000294026 -0.000164826
-2.01118e-029 2.46791e-032 -4.90854e-033
-2.09098e-029 1.36079e-032 3.94315e-033
-3.56125e-029 4.89729e-032 6.1429e-033
0.345868 0.000144611 -7.59389e-005
0.347461 -0.000135784 -0.000226333
0.3454 -0.000291463 6.02765e-005
-1.93876e-016 -6.9207e-020 9.76369e-020
1.27805e-029 -2.83808e-023 -1.72403e-029
2.52928e-017 -1.62528e-020 -4.8511e-021
0.199622 0.744187 -0.0434454
-0.0117402 0.808585 -0.0264454
-0.0174214 0.909304 -0.0823045
0.03574 0.724609 -0.00375126
0.0910171 0.905824 -0.049263
0.0677674 0.869064 -0.0712528
0.135755 0.847035 -0.0370792
-0.0181549 0.983299 -0.0614554
0.0519034 0.82776 -0.0173609
0.0427478 0.985829 -0.0528644
-7.53106e-029 1.06572e-031 2.5821e-032
-4.43608e-029 8.76004e-032 9.42634e-032
-5.50659e-029 4.37966e-031 -4.31478e-032
0.470082 -0.00387084 5.46299e-005
3.8912e-019 1.03596e-019 -6.71068e-022
3.82815e-019 -2.09552e-020 -5.19147e-022
0.371368 5.17162e-005 -0.00130833
9.04045e-019 -2.29867e-022 3.43135e-030
0.331679 0.000481149 -0.00107288
0.377372 -0.00253709 0.000639003
8.15536e-030 4.74633e-030 -2.46545e-031
-0.392296 -0.23837 0.0121662
2.77792e-030 1.64833e-030 -1.04954e-031
-0.267375 -0.171425 0.0101651
-0.259597 -0.138815 0.00805303
5.7168e-016 3.85428e-016 -2.90832e-017
-0.449676 -0.227039 0.0103777
-0.236499 -0.155229 0.0115729
-0.249299 -0.137059 0.0081699
-0.836331 0.000883251 0.0059764
1.78186e-028 -2.25533e-031 -2.60226e-031
1.32522e-029 -8.54482e-032 -1.65383e-031
-0.835225 0.0051253 0.00294276
-0.55377 0.00270428 0.00277925
-0.498897 -0.000407017 0.00632912
-0.924482 0.0040352 0.00357228
-2.29024e-029 3.26344e-029 6.0726e-029
-0.471003 0.00432752 0.00192658
-0.503389 0.00639994 0.00353281
-3.58942e-029 3.42171e-031 2.19854e-031
-1.31579e-029 2.07552e-031 1.60923e-031
-2.03376e-029 -8.46783e-031 5.39953e-032
-4.54379e-017 2.01735e-018 3.70224e-019
-1.17612e-018 1.89431e-020 3.80583e-020
0.296341 -0.00244075 -0.00168581
-1.61418e-017 4.28339e-019 5.90639e-019
0.273711 -0.0055164 -0.00234925
0.283146 0.0040367 -0.0109599
-7.86589e-029 1.28352e-030 -2.7541e-031
0.379461 -0.00630004 0.000564307
0.317504 -0.00964569 0.00206017
0.343999 -0.00691061 0.00078969
0.527539 -0.00805186 -5.88213e-005
0.545103 -0.00545735 -0.000149396
0.480113 -0.0103148 -0.000556461
-1.72102e-029 -1.53732e-031 2.02689e-032
-3.23123e-029 4.32678e-031 -2.00745e-032
5.35316e-017 -2.63795e-018 -3.03771e-019
4.6783e-017 -2.72578e-018 -4.34484e-019
0.277723 -0.00319748 -0.000731721
4.19289e-018 -2.1168e-019 -4.94955e-020
0.285427 -0.00397806 -0.00281136
-6.02408e-029 2.47642e-031 2.46121e-031
0.469704 0.00159889 -0.000688313
-4.00781e-029 1.40103e-031 1.04514e-031
0.287954 -0.00152165 -0.000815822
-9.70675e-017 1.54418e-019 7.00138e-019
0.368497 -0.00301612 -0.00188804
0.299554 -9.09765e-005 -0.000781861
0.492382 -0.00154839 -0.000793004
0.316449 0.000618742 -0.0021876
-1.61193e-029 1.21455e-031 -1.30075e-031
-4.74712e-029 8.38257e-033 -3.10472e-031
-5.52825e-029 3.02579e-031 -2.66924e-031
3.32382e-017 -5.25737e-019 8.28601e-019
-3.57625e-017 6.06374e-019 -7.93613e-019
0.291087 -0.00383546 0.00572362
-2.33589e-017 3.25905e-019 -3.8452e-019
0.302693 -0.0029211 0.00386142
0.302464 -0.00332539 0.00287457
1.37386e-030 -7.96822e-030 4.33452e-031
-0.179566 0.116464 -0.0214707
1.89131e-030 -3.6459e-030 5.55256e-031
0.0744072 0.217492 -0.0285705
-0.0598186 0.08534 -0.00563055
-1.35794e-017 6.96033e-018 2.5135e-020
0.00855139 0.137253 -0.0069158
-0.0678444 0.0432565 -0.0050894
-0.0684179 0.180234 -0.0232257
-0.00403535 0.076871 -0.00780372
-6.50969e-030 -3.51728e-030 -7.6495e-031
-5.23375e-029 -7.2362e-030 -9.58543e-031
-8.88237e-030 -1.91831e-029 2.68626e-031
0.205108 0.043544 0.0340189
0.242975 0.0865232 0.0201359
0.255705 0.19545 0.049176
2.76069e-030 5.11576e-029 -3.16731e-029
5.59952e-017 5.22277e-017 1.22348e-017
-6.96662e-017 -4.46716e-017 -1.27497e-017
-2.10948e-029 -1.29381e-031 3.1013e-032
1.44081e-029 4.26812e-019 -6.7455e-029
6.19813e-017 -1.7265e-018 -3.43132e-021
0.307885 -0.000905175 0.00154719
-0.0936498 -0.265355 0.00270931
1.5778e-030 3.20384e-030 -5.1307e-032
-0.152291 -0.264032 -0.0047311
3.51127e-030 7.8962e-030 4.83576e-032
-0.060047 -0.137829 0.00367458
-0.127007 -0.273355 -0.000872557
-0.0604846 -0.145835 0.00228987
-0.0838401 -0.152313 0.00164386
9.92537e-018 1.95884e-017 -4.77064e-019
-0.0732952 -0.139542 -0.000116634
-0.286415 -0.324796 -0.0311844
-0.266909 -0.486243 -0.0322127
-0.118366 -0.184178 -0.0159512
-0.220326 -0.280993 -0.038038
-0.285209 -0.415887 -0.0326961
-0.197112 -0.273024 -0.0255046
-0.223509 -0.367698 -0.0402381
-0.13318 -0.206549 -0.022475
-0.211619 -0.363931 -0.0299592
0.467997 0.0015857 8.74569e-005
-9.47932e-029 -2.556e-031 3.40059e-031
-3.88859e-029 -1.81551e-031 5.19683e-032
0.480991 0.00209303 -0.0007394
0.30569 0.00241638 -0.00087942
0.28896 0.00239585 0.000641274
0.487965 0.00256849 -0.00104965
4.14398e-029 -8.22941e-030 -1.03361e-028
0.399752 -0.00145518 -0.00157515
0.351694 -0.000379119 -0.000335917
-1.70365e-029 2.52081e-032 1.5875e-032
-4.51277e-029 1.45069e-032 -7.88575e-033
-8.42295e-029 4.26976e-032 4.67479e-032
1.29569e-029 4.66639e-029 8.22324e-029
0.293434 -0.000460966 -0.000213173
6.37934e-017 3.1345e-019 -2.98705e-020
0.321558 0.000647662 0.000457924
-3.01784e-017 -9.83232e-020 2.69539e-020
0.293472 -7.943e-005 -0.000394951
-2.55113e-029 4.58107e-032 -2.93044e-032
-4.94654e-029 5.25778e-032 -1.05404e-031
0.50935 -0.000576049 0.000252253
-8.54495e-029 1.16761e-031 -2.05855e-031
8.3524e-017 -2.04076e-019 4.09596e-019
0.385152 -0.000868448 0.000754847
-6.58911e-017 3.67588e-019 -1.66058e-019
0.395783 -0.0007054 0.00195202
3.12824e-017 5.70453e-020 2.06231e-019
0.375501 -0.00224228 0.000646442
0.467055 0.00116144 -0.000622097
-9.45874e-029 3.63204e-032 9.66586e-032
0.536194 0.000114006 -6.52468e-005
0.342771 0.000257428 -0.000359494
0.470084 0.00199614 0.000425292
0.374611 -0.00152372 0.00110777
0.542695 0.00197015 -0.00093428
0.381245 0.000803896 -0.000338602
1.25934e-029 1.22281e-031 -9.70516e-032
-0.346074 -0.0053248 0.00467996
8.38101e-017 9.16467e-019 -5.22383e-018
-0.460727 -0.00488242 0.00479282
-0.7511 -0.0107595 0.004449
1.20625e-030 -5.30346e-029 3.235e-030
1.46965e-031 -9.7616e-029 5.79544e-030
-0.00957887 0.615606 -0.0366572
8.60682e-006 0.619511 -0.0373908
-0.0118772 0.427595 -0.0272561
1.33769e-018 -8.17113e-017 5.3941e-018
-0.00776362 0.506712 -0.0313415
0.000654417 0.567185 0.000220142
0.0123926 0.292038 0.00315258
0.00436953 0.571967 -0.00550981
0.000178372 0.377931 0.00145697
0.00944283 0.459146 0.00252062
0.00350627 0.573261 -0.00284288
0.000395294 0.477057 0.00168458
0.00865928 0.454057 -0.000640629
0.00540354 0.363433 0.0024393
0.00202977 0.497965 -0.000897725
0.00748826 0.274666 0.00681779
0.00187167 0.39623 0.00668811
0.000978988 0.294619 0.00424795
8.25794e-029 1.53299e-030 6.42278e-031
1.3877e-028 2.80831e-030 9.38915e-031
2.48067e-029 2.9033e-031 1.16691e-031
-0.628026 -0.00807943 -0.00355951
-0.592189 -0.00894132 -0.00578362
-0.591953 -0.010005 -0.00349359
-1.35354e-016 3.2679e-019 -1.83477e-018
-1.59961e-016 -2.94653e-018 -1.32736e-018
-1.52004e-016 -3.13791e-018 -1.82121e-018
7.08553e-031 2.64902e-030 -5.9232e-032
-0.161968 -0.477492 -0.00315985
3.96207e-030 1.94618e-029 1.05451e-031
1.48898e-030 7.20848e-030 -1.30814e-031
-0.0933894 -0.347209 0.00651677
4.39456e-030 -4.05423e-030 -2.6502e-029
-4.20307e-017 -2.03752e-016 7.10616e-018