# vtk DataFile Version 2.0 
output.vtk, Created by Freefem++, via gregorio
ASCII
DATASET UNSTRUCTURED_GRID
POINTS 7451 double
-3.79965 2.23652 0.040848
-4.13429 2.05574 0.276253
-4.09122 2.24524 0.070091
-4.01836 2.27766 0.330071
-3.96697 2.14613 0.158551
-3.94543 2.24088 0.0554695
-3.90901 2.25709 0.185459
-4.11275 2.15049 0.173172
-4.07633 2.1667 0.303162
-4.05479 2.26145 0.200081
-4.81817 0.732763 -0.840268
-4.76136 0.37264 -0.736193
-5.12328 0.495929 -0.550642
-4.73872 0.559667 -0.434419
-4.78977 0.552702 -0.788231
-4.97072 0.614346 -0.695455
-4.77845 0.646215 -0.637344
-4.94232 0.434285 -0.643417
-4.75004 0.466153 -0.585306
-4.931 0.527798 -0.49253
-7.58244 -0.891248 -0.453516
-8 -0.559587 0.124298
-7.26059 -0.264226 0.250847
-7.58828 -0.999993 0.00381
-7.79122 -0.725418 -0.164609
-7.42152 -0.577737 -0.101334
-7.58536 -0.94562 -0.224853
-7.6303 -0.411906 0.187573
-7.79414 -0.77979 0.064054
-7.42444 -0.632109 0.127328
-5.46564 0.048234 0.998836
-5.51396 -0.351144 0.936321
-5.02851 -0.125769 0.598961
-5.56665 -0.148801 0.504295
-5.4898 -0.151455 0.967578
-5.24708 -0.0387675 0.798898
-5.51614 -0.0502835 0.751565
-5.27124 -0.238457 0.767641
-5.5403 -0.249972 0.720308
-5.29758 -0.137285 0.551628
-4.20269 -2.80441 0.102764
-3.63085 -2.57461 -0.287529
-4.13183 -2.29387 0.255347
-4.14432 -2.47254 -0.273935
-3.91677 -2.68951 -0.0923825
-4.16726 -2.54914 0.179055
-4.1735 -2.63848 -0.0855855
-3.88134 -2.43424 -0.016091
-3.88759 -2.52358 -0.280732
-4.13807 -2.38321 -0.009294
-6.25062 -0.085247 0.575431
-6.51584 -0.423084 -0.15939
-6.46019 0.447486 0.293263
-6.75561 -0.174737 0.413139
-6.38323 -0.254165 0.20802
-6.35541 0.181119 0.434347
-6.88822 -0.343655 0.0457285
-6.86039 0.09163 0.272055
-6.48801 0.012201 0.0669365
-4.88162 0.371746 0.655425
-4.51246 -0.112716 0.623981
-4.65723 0.09269 0.995695
-4.69704 0.129515 0.639703
-4.95507 0.122989 0.627193
-4.76942 0.232218 0.82556
-4.77049 -0.119243 0.611471
-4.58484 -0.010013 0.809838
-4.84287 -0.0165395 0.797328
-3.75099 1.20677 0.090288
-3.64118 0.745776 0.266863
-4.09568 0.790235 0.315934
-3.78936 1.07086 0.69071
-3.69609 0.976272 0.178575
-3.92333 0.998502 0.203111
-3.77017 1.13882 0.390499
-3.86843 0.768006 0.291399
-3.71527 0.908319 0.478787
-3.94252 0.930549 0.503322
-2.18572 0.40145 0.915881
-1.75478 0.245881 0.526965
-1.94554 -0.013967 0.999902
-1.76886 0.356252 0.93439
-1.97025 0.323665 0.721423
-2.06563 0.193741 0.957891
-1.97729 0.378851 0.925135
-1.85016 0.115957 0.763433
-1.76182 0.301067 0.730678
-1.8572 0.171143 0.967146
-5.06116 0.824959 0.710182
-4.88551 0.773989 0.80113
-4.92155 0.772883 0.437198
-5.01596 0.602336 0.857802
-4.97333 0.799474 0.755656
-4.99135 0.798921 0.57369
-5.03856 0.713647 0.783992
-4.90353 0.773436 0.619164
-4.95074 0.688163 0.829466
-4.96876 0.687609 0.6475
-2.34262 2.51752 0.051733
-2.4672 2.85727 -0.311185
-2.29554 2.81673 0.086134
-2.65762 2.74748 0.16058
-2.40491 2.6874 -0.129726
-2.31908 2.66712 0.0689335
-2.50012 2.6325 0.106157
-2.38137 2.837 -0.112526
-2.56241 2.80238 -0.0753025
-2.47658 2.7821 0.123357
-3.50303 -3.76846 -0.636668
-3.49422 -3.29308 -1.15018
-3.31427 -3.71149 -1.25136
-2.90724 -3.34218 -0.858121
-3.49863 -3.53077 -0.893424
-3.40865 -3.73997 -0.944014
-3.20514 -3.55532 -0.747394
-3.40425 -3.50228 -1.20077
-3.20073 -3.31763 -1.00415
-3.11076 -3.52683 -1.05474
-4.0054 2.49156 -0.125899
-3.5956 2.50054 -0.194198
-3.83412 2.54803 0.0159
-3.8005 2.49605 -0.160049
-3.90253 2.36404 -0.0425255
-3.91976 2.5198 -0.0549995
-3.69763 2.36853 -0.076675
-3.71486 2.52428 -0.089149
-3.81689 2.39228 0.028374
-3.73452 -3.68531 -1.05781
-3.52439 -3.6984 -1.15459
-3.61437 -3.4892 -1.104
-3.61877 -3.72688 -0.84724
-6.37864 0.944563 0.328331
-6.25891 0.813305 0.581838
-6.65332 0.772267 0.635298
-6.31878 0.878934 0.455085
-6.41941 0.696025 0.310797
-6.51598 0.858415 0.481815
-6.35955 0.630395 0.43755
-6.45612 0.792786 0.608568
-6.55675 0.609877 0.46428
1.62066 -0.841518 -0.540229
1.89324 0.238579 -0.195511
2.01627 -0.690819 -0.723027
2.25185 -0.211859 0.261412
1.75695 -0.30147 -0.36787
1.81846 -0.766169 -0.631628
1.93625 -0.526689 -0.139408
1.95475 -0.22612 -0.459269
2.07254 0.01336 0.0329505
2.13406 -0.451339 -0.230807
-2.56949 2.06853 0.305158
-2.91403 1.60744 0.564909
-3.02709 2.08175 0.021586
-2.87501 2.07662 0.630995
-2.74176 1.83799 0.435033
-2.79829 2.07514 0.163372
-2.72225 2.07258 0.468077
-2.97056 1.8446 0.293247
-2.89452 1.84203 0.597952
-2.95105 2.07919 0.32629
-5.39985 0.358755 0.933432
-5.34934 0.453264 0.543553
-5.56264 0.558471 0.829524
-5.70805 0.297641 0.954678
-5.37459 0.40601 0.738492
-5.48124 0.458613 0.881478
-5.55395 0.328198 0.944055
-5.45599 0.505868 0.686538
-5.52869 0.375452 0.749116
-5.63535 0.428056 0.892101
-4.17913 0.323834 -0.696515
-4.36183 0.516245 -0.417662
-4.60784 0.019305 -0.528365
-4.46586 0.364911 -0.72315
-4.27048 0.42004 -0.557088
-4.39349 0.17157 -0.61244
-4.3225 0.344372 -0.709832
-4.48483 0.267775 -0.473013
-4.41384 0.440578 -0.570406
-4.53685 0.192108 -0.625757
-5.9377 0.438799 -0.558905
-5.87927 0.529091 -0.848565
-6.25926 0.555743 -0.831354
-6.07929 0.245277 -0.969453
-5.90849 0.483945 -0.703735
-6.09848 0.497271 -0.695129
-6.00849 0.342038 -0.764179
-6.06927 0.542417 -0.839959
-5.97928 0.387184 -0.909009
-6.16928 0.40051 -0.900404
-3.64743 2.72944 0.180305
-3.74077 2.63873 0.0981025
-3.72354 2.48298 0.110576
-3.62151 2.61499 -0.0069465
-3.98168 0.388062 0.141859
-3.76543 0.320245 0.603448
-3.81143 0.566919 0.204361
-3.70331 0.533011 0.435156
-4.03868 0.589149 0.228897
-3.87356 0.354154 0.372653
-3.93055 0.55524 0.459691
-6.17342 0.027823 -0.593282
-6.59748 0.255766 -0.966739
-6.35964 0.547779 -0.240473
-6.21634 0.291783 -0.712318
-6.42837 0.405755 -0.899047
-6.30945 0.551761 -0.535914
-6.38545 0.141794 -0.78001
-6.26653 0.287801 -0.416878
-6.47856 0.401772 -0.603606
-5.98474 0.742767 -0.66955
-5.96122 0.590783 -0.614227
-6.122 0.649255 -0.750452
-5.93201 0.635929 -0.759057
-5.86659 0.345457 -0.129882
-5.96054 -0.099592 -0.035866
-6.02 0.18664 -0.361582
-6.11312 0.446618 -0.185177
-5.91357 0.122933 -0.082874
-6.06698 -0.0358845 -0.314574
-6.16009 0.224094 -0.13817
-1.10421 0.363269 -0.931684
-0.773878 0.737644 -0.67519
-0.520452 0.269543 -0.962988
-0.384634 0.008888 -0.353445
-0.939043 0.550457 -0.803437
-0.812329 0.316406 -0.947336
-0.74442 0.186079 -0.642564
-0.647165 0.503594 -0.819089
-0.579256 0.373266 -0.514317
-0.452543 0.139215 -0.658216
-2.85287 -3.00249 -1.21636
-3.23054 -2.92385 -1.196
-3.06719 -3.3306 -1.25351
-2.88006 -3.17233 -1.03724
-3.06889 -3.13301 -1.02706
-2.98722 -3.33639 -1.05581
-3.0417 -2.96317 -1.20618
-2.96003 -3.16654 -1.23493
-3.14886 -3.12722 -1.22475
-3.38618 -2.05134 -0.098565
-2.37808 -2.56123 -0.134541
-2.49252 -2.47812 0.422472
-2.41131 -1.89586 0.044632
-2.88213 -2.30628 -0.116553
-2.93935 -2.26473 0.161954
-2.89875 -1.9736 -0.0269665
-2.4353 -2.51967 0.143966
-2.39469 -2.22855 -0.0449545
-2.45192 -2.18699 0.233552
-1.85713 -0.413967 0.42138
-1.65927 -0.390905 0.920431
-1.2503 -0.077569 0.384148
-1.80595 -0.084043 0.474172
-1.70702 -0.072512 0.723698
-1.50254 0.084156 0.455557
-1.7582 -0.402436 0.670905
-1.55371 -0.245768 0.402764
-1.45478 -0.234237 0.652289
-2.09043 2.55218 0.167395
-2.0659 2.66009 -0.048555
-2.19298 2.68445 0.126765
-2.18072 2.73841 0.0187895
-2.07816 2.60614 0.05942
-2.21652 2.53485 0.109564
-2.20426 2.58881 0.001589
-4.01665 2.44382 0.136481
-3.97233 2.67361 0.084512
-3.92539 2.49592 0.0761905
-3.99449 2.55872 0.110496
-4.01103 2.46769 0.005291
-3.90323 2.61082 0.050206
-3.98887 2.58259 -0.0206935
-3.92754 1.80484 -0.220103
-4.28096 1.83407 -0.225431
-4.13592 1.88983 -0.461486
-4.146 2.03152 -0.278406
-4.10425 1.81945 -0.222767
-4.03173 1.84734 -0.340795
-4.03677 1.91818 -0.249254
-4.20844 1.86195 -0.343458
-4.21348 1.9328 -0.251918
-4.14096 1.96068 -0.369946
-4.04038 -5 0.949212
-3.62468 -5 1.26221
-3.84559 -4.54287 1.07336
-3.71487 -5 0.728948
-3.83253 -5 1.10571
-3.94299 -4.77144 1.01129
-3.87763 -5 0.83908
-3.73513 -4.77144 1.16779
-3.66977 -5 0.99558
-3.78023 -4.77144 0.901156
-1.37334 0.812082 -0.583544
-0.975724 0.961208 -0.275823
-1.19336 -0.166381 -0.273753
-1.17453 0.886645 -0.429683
-1.07361 0.774863 -0.629367
-1.28335 0.32285 -0.428648
-0.874801 0.849426 -0.475506
-1.08454 0.397413 -0.274788
-0.983618 0.285631 -0.474471
-3.83515 -1.82017 -0.741539
-3.34976 -1.58414 -0.592596
-3.50394 -2.07825 -1.02313
-3.59245 -1.70215 -0.667067
-3.66955 -1.94921 -0.882335
-3.61067 -1.93575 -0.420052
-3.42685 -1.83119 -0.807863
-3.36797 -1.81774 -0.345581
-3.44506 -2.06479 -0.560848
-2.72946 0.769161 0.094533
-2.75119 0.681139 -0.326037
-2.98528 1.02631 -0.281501
-3.08113 0.734324 -0.34324
-2.74032 0.72515 -0.115752
-2.85737 0.897737 -0.093484
-2.90529 0.751742 -0.124353
-2.86823 0.853726 -0.303769
-2.91616 0.707731 -0.334639
-3.03321 0.880319 -0.31237
-2.94023 -2.47675 -0.674772
-3.14499 -2.03044 -0.633684
-3.22209 -2.2775 -0.848951
-3.16321 -2.26404 -0.386669
-3.03914 -4.25341 0.579285
-2.64287 -3.80807 0.20828
-2.47531 -4.18593 0.714333
-2.97264 -3.41482 0.618231
-2.84101 -4.03074 0.393783
-2.75723 -4.21967 0.646809
-3.00589 -3.83412 0.598758
-2.55909 -3.997 0.461307
-2.80776 -3.61144 0.413255
-2.72397 -3.80037 0.666282
-2.39684 -0.595487 -0.803365
-1.98884 -0.54749 -0.836812
-2.24172 -0.466498 -0.098067
-2.21295 -0.01831 -0.514797
-2.19284 -0.571489 -0.820088
-2.31928 -0.530992 -0.450716
-2.3049 -0.306899 -0.659081
-2.11528 -0.506994 -0.46744
-2.1009 -0.2829 -0.675804
-2.22734 -0.242404 -0.306432
-3.36239 -4.55484 -1.31864
-3.11171 -4.25429 -0.873787
-2.86199 -4.55394 -1.36046
-2.79118 -5 -0.96439
-3.23705 -4.40456 -1.09621
-3.11219 -4.55439 -1.33955
-3.07678 -4.77742 -1.14151
-2.98685 -4.40411 -1.11712
-2.95144 -4.62714 -0.919088
-2.82658 -4.77697 -1.16243
-3.88203 2.65205 -0.416886
-3.48121 2.84727 -0.340672
-3.82273 3 -0.474998
-3.72541 2.76868 -0.627028
-3.68162 2.74966 -0.378779
-3.85238 2.82603 -0.445942
-3.80372 2.71037 -0.521957
-3.65197 2.92364 -0.407835
-3.60331 2.80798 -0.48385
-3.77407 2.88434 -0.551013
[...]
POINT_DATA 7451
 
FIELD FieldData 2
velocity 3 7451 double
-0.122708 -0.347972 0.00974219
1.6386e-030 3.7015e-030 -2.07359e-031
4.75043e-031 1.29545e-030 -6.12278e-032
1.3709e-030 3.68528e-030 -1.89276e-031
-0.0835738 -0.204122 0.0116337
-0.0727526 -0.200127 0.00940994
-0.0804964 -0.232952 0.0124723
-1.87787e-018 -4.55294e-018 3.19777e-019
5.68284e-018 1.41607e-017 -1.12319e-018
1.99541e-029 -8.56619e-030 -4.65229e-030
9.46154e-030 3.14906e-030 -2.16465e-031
-0.411421 -0.109193 0.00111648
-0.627421 -0.1425 0.00758525
-0.707474 -0.2307 0.0063492
-0.227298 -0.0769051 0.00709561
-0.306656 -0.0931236 0.00993038
-0.405899 -0.146833 0.00949032
-0.535687 -0.134227 0.00707634
-0.59347 -0.174466 0.005445
-0.67701 -0.192544 0.00860368
1.01579e-028 -3.14947e-031 2.93135e-032
-0.84877 0.00733287 -0.000630305
-1.10722 5.32109e-005 -0.00061198
5.86506e-029 -2.36552e-031 5.66709e-032
-0.552759 0.00344774 7.95704e-005
-0.836964 1.6236e-005 -0.00253506
-1.34523e-016 2.51113e-019 -3.15638e-019
-1.00951 0.00129321 -7.99457e-005
-0.479941 0.00635621 -0.000800115
-0.743149 0.00192653 -0.000179458
3.45582e-029 3.57065e-030 6.11067e-032
2.27518e-029 1.45081e-030 2.93394e-031
-0.701376 -0.105087 -0.0136539
-0.886558 -0.0624297 -0.00506852
-1.05865e-016 -6.60984e-018 -1.44818e-018
-0.423358 -0.0481385 -0.00388269
-0.527098 -0.0335234 -0.00348394
-0.404105 -0.0313082 -0.00752583
-0.506224 -0.0232413 -0.00486484
-0.799633 -0.0860485 -0.00844925
-4.41718e-030 -6.76224e-029 2.12371e-030
0.0260088 0.422841 0.00309318
-4.82488e-030 -8.05125e-029 2.66983e-030
-8.49612e-031 -1.01204e-029 -3.75211e-033
0.023425 0.286553 -0.00361498
-6.26157e-017 -5.76301e-016 1.82714e-017
-3.9663e-018 -4.00606e-017 5.40365e-019
0.0265352 0.339812 -0.00562222
0.02192 0.251515 0.000755522
-5.7008e-017 -6.10922e-016 1.03131e-017
-0.832445 -0.0163666 -0.00239236
-1.00552 -0.00958789 -0.00226346
-0.90512 -0.0130034 -0.000897448
-1.01267 -0.0026128 -0.000990892
-1.13459 -0.0173413 -0.00319121
-0.987009 -0.0172454 -0.00228231
-1.11846 -0.00467759 -0.00387922
-1.1726 -0.00249936 -0.000470991
-1.27297 -0.0170126 -0.00154835
-0.564398 -0.186613 0.00451227
-0.570806 -0.102009 -0.0200174
1.96628e-029 5.3746e-030 2.06538e-031
-0.624569 -0.16552 -0.00817866
-0.690087 -0.154633 -0.00383693
-0.309893 -0.108585 0.00313686
-0.635843 -0.112182 -0.0187386
-0.342385 -0.092672 -0.0101489
-0.390431 -0.0839009 -0.0081985
-0.430972 -0.456008 -0.0225421
-0.46725 -0.268605 -0.0507397
-0.606801 -0.338771 -0.0150374
-0.239916 -0.301746 -0.000818091
-0.465901 -0.388389 -0.0395719
-0.520505 -0.400385 -0.0202591
-0.394699 -0.420242 -0.0165133
-0.554717 -0.312686 -0.0327687
-0.387447 -0.330285 -0.0249646
-0.423743 -0.336701 -0.00806091
-1.80291e-029 -6.84727e-030 1.25004e-030
0.348648 0.0526956 -0.00675992
-2.16429e-029 -6.5422e-030 -3.91931e-031
-4.5766e-030 -2.49865e-031 3.13634e-032
0.188168 0.0303216 -0.00647578
6.02737e-017 6.33711e-018 2.21235e-018
3.2216e-018 2.36577e-019 -3.39678e-020
0.213238 0.0180027 -0.0015228
0.199001 0.0116564 0.00085162
-6.92523e-017 -9.6387e-019 -7.88471e-019
2.49927e-017 1.16075e-017 -6.91956e-019
2.89655e-030 1.32041e-030 -5.49295e-032
-0.509014 -0.210919 0.00888635
3.09416e-030 1.26432e-030 -5.72919e-032
1.25022e-017 6.25841e-018 -3.85515e-019
-0.28672 -0.126792 0.00663663
9.83686e-017 4.41298e-017 -3.51412e-018
-0.286869 -0.138395 0.00764569
1.52408e-016 7.78652e-017 -3.34878e-018
-0.316404 -0.135063 0.00571964
-0.0332523 -0.236694 -0.0137443
-0.0204443 -0.25202 -0.0089052
-0.0126056 -0.236141 -0.00708982
-0.0524555 -0.499319 -0.0155362
-0.0290331 -0.266882 -0.0113088
-0.0231875 -0.237515 -0.0105977
-0.0456905 -0.378705 -0.0166069
-0.0188133 -0.269384 -0.00958018
-0.0382216 -0.394998 -0.0125902
-0.0321905 -0.383267 -0.0119497
0.0111528 0.273085 0.00823962
-6.74682e-031 -2.19998e-029 -1.11529e-030
-3.37652e-031 -1.68677e-029 -9.50085e-031
-0.00171268 0.229284 0.013017
0.00635764 0.146653 0.00816464
0.00547826 0.143822 0.00818022
0.00464687 0.279107 0.0118123
2.31943e-029 2.35746e-030 6.739e-029
0.00210502 0.137237 0.00929797
0.00106485 0.118289 0.00836121
1.0122e-030 3.72748e-030 -1.0655e-031
-0.0908405 -0.371699 0.00400324
-0.0486192 -0.229836 0.00507187
-0.0582016 -0.233672 0.00637449
-0.060453 -0.19448 0.00629339
-0.0276883 -0.117415 0.00346162
-0.110674 -0.372375 0.0059935
-0.0762783 -0.330047 0.00577949
-0.0826218 -0.287519 0.00772011
-2.73202e-031 -4.9466e-030 -2.43365e-031
-3.60778e-018 -7.01202e-017 -5.19879e-018
3.53546e-018 6.27067e-017 4.55413e-018
0.00761012 0.138723 0.00676433
1.07794e-029 1.84209e-031 1.88697e-033
1.42815e-029 2.38725e-031 1.67116e-032
1.86321e-029 1.98274e-031 4.53142e-032
6.95778e-017 1.53909e-018 8.31787e-020
-0.521086 -0.0128284 -0.000488005
-5.20377e-030 -4.72182e-029 -2.38505e-029
-0.511566 -0.00650517 -0.000654207
-1.81805e-017 -1.84279e-019 1.71656e-019
-0.520632 -0.00587181 -0.0010237
-1.57242e-028 3.96151e-031 -7.60065e-032
0.485717 0.000581574 0.000721551
-5.81436e-029 3.93221e-032 -1.36979e-031
0.47321 -0.00219405 0.00130695
0.416373 -0.00125901 0.000283058
-6.67758e-017 3.33057e-020 -3.0479e-019
0.375739 -0.000215581 0.00136181
0.393893 0.000709676 0.000857643
0.535957 -0.00104073 0.00163481
0.397276 -0.00114899 0.00174004
-0.0806972 -0.331182 -0.0294883
-0.119345 -0.3471 -0.0350694
-0.171474 -0.534574 -0.0264946
-0.0915941 -0.417999 -0.022097
-0.107592 -0.366599 -0.035472
-0.135259 -0.483511 -0.0343413
-0.0943135 -0.405092 -0.0304981
-0.179256 -0.521133 -0.0387204
-0.109026 -0.389893 -0.0291401
-0.152942 -0.554572 -0.032169
3.26026e-030 4.29964e-031 -7.11012e-032
-0.669524 -0.123941 0.00998069
7.05048e-030 5.64832e-031 -1.23207e-031
3.13032e-029 2.08897e-030 -1.59635e-031
-0.377208 -0.0498967 0.0102268
-9.80189e-017 -7.72438e-018 3.39112e-018
1.36388e-016 6.12292e-018 -3.92884e-018
-0.36477 -0.0441642 0.00885179
-0.380721 -0.031071 0.00695345
-2.22364e-017 -6.93278e-019 7.71795e-019
-0.404146 -0.101641 -0.01454
-0.687633 -0.23328 -0.0112764
-0.729673 -0.112703 -0.00684571
-0.409426 -0.117939 -0.0050731
-0.567709 -0.169785 -0.0140207
-0.583449 -0.118149 -0.0114783
-0.411391 -0.11407 -0.00957835
-0.744271 -0.174797 -0.0114965
-0.579368 -0.181454 -0.00652376
-0.594333 -0.12733 -0.006331
-0.62798 -0.0135435 0.00196643
3.50773e-030 4.09772e-032 -7.41268e-033
3.12481e-029 3.79785e-031 -1.61346e-031
1.43868e-029 1.93024e-031 -2.94197e-032
-0.338387 -0.00334299 0.00131473
-0.335927 -0.00628249 0.0028467
-0.36652 -0.00422256 0.00204051
-2.40024e-016 -1.90096e-018 2.11712e-018
-1.73602e-016 -2.34974e-019 1.05339e-018
-1.15565e-029 -2.24043e-029 5.02971e-029
-0.0589405 -0.397914 0.00556133
-0.0558816 -0.321121 0.0057338
-0.086885 -0.369986 0.00683574
-0.0795644 -0.413399 0.00424082
-0.742499 -0.156919 -0.0445892
-0.409545 -0.0384121 -0.0219441
-0.605101 -0.208339 -0.0504508
-0.464609 -0.147767 -0.0412805
-0.695831 -0.266443 -0.0318405
-0.615543 -0.0999264 -0.0381764
-0.547889 -0.21173 -0.0234723
-0.812833 -0.0103033 0.000551292
-3.67306e-017 4.34391e-020 8.29324e-020
-0.813198 -0.00909041 0.00354408
-0.508073 -0.00732663 0.00302037
-2.61791e-029 -3.20062e-029 6.31325e-029
-0.508127 -0.00580865 0.00457695
-0.461616 -0.00796777 0.00171926
-0.944233 -0.0126204 0.00308011
-0.59187 -0.00285221 0.00304174
5.66889e-030 9.87419e-032 -9.30159e-033
-0.342975 -0.00642859 0.00205042
-7.74146e-017 -1.26001e-018 1.73812e-018
-1.02239e-016 -8.34847e-019 6.6289e-019
-1.11589 -0.0513895 0.00295372
-1.25068 -0.0418211 -0.00322459
-1.06246 -0.0265922 0.000725569
-0.980865 -0.0224297 0.00355001
-1.24856 -0.050726 0.00025015
-1.14118 -0.0262672 -0.00144865
-1.18966 -0.0274254 0.00150393
1.98546e-017 -1.52884e-019 -3.13816e-019
-5.1286e-029 4.88635e-031 4.95135e-031
-1.90128e-029 5.64177e-032 9.91393e-032
0.476833 -0.00456253 -0.000860603
-3.05429e-017 2.81374e-019 4.43058e-019
1.41237e-029 -3.39206e-029 1.02541e-028
0.29112 -0.00292517 -0.00291468
-3.14645e-017 1.02499e-019 3.20625e-019
0.325756 -0.00362926 -0.00231855
0.294187 0.000105124 -0.00199952
8.13617e-032 -7.66998e-030 -6.00397e-031
-3.35084e-031 -2.35566e-029 -1.42493e-030
-5.81351e-033 -2.84156e-030 -2.12051e-031
-0.00125107 0.120598 0.00926581
0.00196502 0.12758 0.0101314
2.23237e-005 0.116307 0.00814993
-6.9735e-019 -5.93017e-017 -7.11288e-018
-8.26902e-020 2.71479e-017 2.4219e-018
-1.26285e-018 -5.73962e-017 2.61409e-018
0.0214571 0.695199 -0.00764984
-0.025136 0.503805 -0.00169401
-0.0275144 0.714152 -0.0390082
-0.0277036 0.647112 -0.018743
-0.00713492 0.737805 -0.00502678
-0.00367744 0.891333 -0.0277468
-0.00632271 0.839476 -0.0165226
-0.0276433 0.65646 -0.0171048
-0.0266077 0.577213 -0.00758339
-0.0289669 0.708569 -0.0303526
0.366461 0.161818 0.0247049
-2.77847e-029 -1.84134e-030 -2.08018e-031
0.456267 0.0152655 -0.00231535
0.408581 0.106091 -0.000203896
0.246239 0.00823422 -0.000842713
0.422511 0.0334628 -0.00200379
0.195121 0.00562156 0.00938266
0.412462 0.0527975 -0.00103074
0.268124 0.00137791 -0.0029712
-1.95486e-018 -2.71976e-017 -1.22851e-018
1.15825e-031 1.31577e-030 6.44723e-032
-0.00755337 -0.120279 -0.00453881
-0.00808557 -0.1152 -0.00401384
-4.14607e-018 -5.214e-017 -2.22389e-018
-0.0166189 -0.129875 -0.00752513
-0.0152962 -0.121929 -0.0078868
-7.44474e-018 -3.01224e-017 1.14458e-018
2.97971e-031 1.89094e-030 -4.07284e-032
-0.0312657 -0.133527 0.00430808
1.2517e-017 6.64866e-017 -1.65603e-018
2.14438e-029 -7.0592e-030 -1.26324e-031
-0.0212297 -0.131105 0.00195691
2.18566e-017 1.18663e-016 -2.56026e-018
-0.184244 -0.295619 0.00834091
1.54985e-030 2.16597e-030 -1.22867e-031
7.3042e-031 1.1715e-030 -6.01966e-032
5.48337e-031 9.53001e-031 -5.0642e-032
-0.113132 -0.170227 0.00974109
-0.10335 -0.165104 0.00851788
-0.100272 -0.169975 0.00884461
-5.15513e-017 -7.77344e-017 5.84017e-018
-3.2316e-016 -5.12639e-016 3.84099e-017
-1.98063e-016 -3.32659e-016 2.34338e-017
-1.4145e-031 -4.37329e-030 1.96685e-031
-2.23316e-031 -1.30757e-029 6.27671e-031
-6.75355e-031 -2.2043e-029 1.25785e-030
0.0101566 0.415379 -0.0155096
-3.65486e-018 -1.72836e-016 8.29047e-018
-5.88151e-019 -1.94699e-017 1.04376e-018
0.0065717 0.252053 -0.010044
9.14521e-019 3.73808e-017 -2.13973e-018
0.00616641 0.317864 -0.0150858
0.00910714 0.306552 -0.016523
-5.92607e-029 -6.1372e-032 1.32216e-030
-6.22434e-029 4.00932e-031 6.66723e-031
0.480589 -0.0115092 0.00013031
2.52721e-017 3.64145e-020 -6.34454e-019
-2.74916e-017 1.54625e-019 6.18144e-019
0.383838 -0.00312754 -0.0081805
-6.249e-017 5.40358e-019 6.12163e-019
0.420235 -0.00181471 -0.00590798
0.37029 -0.00551709 -0.00330782
5.9502e-020 9.02563e-019 4.47422e-020
0.00715736 0.401532 0.0164227
-2.27063e-030 -6.35699e-029 -2.22938e-030
0.00821579 0.219499 0.0106672
-4.2895e-018 -7.14658e-017 -9.65971e-018
0.0195642 0.389194 0.00876512
0.00752741 0.188069 0.0125243
0.0147585 0.58014 0.00808618
0.0157083 0.380705 0.0139686
0.0202469 -0.0574574 -0.0512489
0.0192566 -0.0110311 -0.0338192
-0.128921 -0.209434 -0.0354837
-0.135563 -0.100864 -0.0472049
0.0179846 -0.0449926 -0.0471539
-0.0619029 -0.160791 -0.0466704
-0.0626997 -0.103668 -0.0563656
-0.0454606 -0.0933737 -0.0320624
-0.0513667 -0.0538245 -0.0409926
-0.126392 -0.158611 -0.0418891
-0.00171353 0.367238 0.0170512
0.00689109 0.412198 0.0172765
0.00721451 0.227673 0.0137877
0.0090149 0.571499 0.0103641
0.000650748 0.669094 -0.0330846
-0.0157993 0.657063 -0.0188475
-0.0173094 0.546842 -0.034711
-0.00061436 0.747725 -0.0477463
-0.0082404 0.711315 -0.0265048
-0.00975106 0.665495 -0.0367944
0.000350962 0.709575 -0.0412186
-0.0187092 0.645962 -0.0278765
-0.0102501 0.745915 -0.0308349
-0.0128363 0.682053 -0.0426108
1.78356e-017 5.38438e-017 3.75989e-018
5.69278e-017 1.4119e-018 9.7381e-020
0.401676 0.439077 -0.0211733
0.302087 0.107273 -0.0259383
1.45363e-029 3.92034e-029 4.43295e-029
0.265803 0.292889 -0.0147467
0.201733 0.11211 -0.0179685
0.299526 0.167829 -0.016919
0.231678 0.0572881 -0.0124494
0.385027 0.249908 -0.0291217
8.06555e-019 2.11783e-017 1.64214e-018
0.00199007 0.209874 0.0080543
2.02306e-031 -1.4247e-029 -5.11588e-031
-0.00166691 0.156142 0.00228978
0.00231372 0.100158 0.00571134
1.34617e-018 3.35058e-017 4.47498e-018
0.000570591 0.0895473 0.00313701
-5.22327e-005 0.099983 0.00532329
-0.000663379 0.186867 0.00436247
-0.00105952 0.078485 0.00272836
6.63421e-031 3.58769e-030 -7.50016e-032
-0.0414936 -0.322601 0.001953
6.172e-031 1.1505e-029 -1.10206e-031
1.05922e-030 5.24633e-030 -9.38558e-032
-0.0278692 -0.19042 0.00367493
-2.8626e-017 -2.43168e-016 5.453e-018
2.38525e-029 -5.194e-030 1.66312e-029
-0.0179952 -0.184246 0.00208624
-0.0258374 -0.176779 0.00175714
-2.29156e-017 -1.98252e-016 2.84574e-018
0.516915 -0.000285442 -0.000178822
-2.16766e-029 2.72132e-032 -4.70805e-033
-2.2538e-029 1.42202e-032 4.39895e-033
-3.83925e-029 5.27691e-032 6.98011e-033
0.347339 0.000136043 -8.74319e-005
0.348959 -0.000132002 -0.000229948
0.346896 -0.00030207 6.08765e-005
-1.9444e-016 -6.51752e-020 1.01238e-019
1.37699e-029 4.10797e-021 -1.85053e-029
2.5368e-017 -1.68976e-020 -4.62009e-021
0.20187 0.744562 -0.046726
-0.0111188 0.790396 -0.0292277
-0.0169972 0.92697 -0.0901588
0.0361081 0.707503 -0.00571898
0.0921112 0.892896 -0.0539176
0.0691189 0.877866 -0.0778241
0.136411 0.836224 -0.040266
-0.0174957 0.971792 -0.0674411
0.0525207 0.809005 -0.0199522
0.0435117 0.975676 -0.0585168
-8.12336e-029 1.16114e-031 2.28197e-032
-4.7825e-029 9.03306e-032 9.22113e-032
-5.93918e-029 4.74501e-031 -5.60191e-032
0.472726 -0.00385894 0.000154924
3.90406e-019 1.05377e-019 -6.31308e-022
3.84458e-019 -2.2458e-020 -4.71666e-022
0.373111 5.01358e-005 -0.00126316
9.07605e-019 -2.06789e-022 3.68865e-030
0.333082 0.000531109 -0.000987278
0.379156 -0.002569 0.000707689
8.79555e-030 5.13166e-030 -2.69192e-031
-0.394483 -0.240304 0.0117527
2.99483e-030 1.77925e-030 -1.11928e-031
-0.268637 -0.172554 0.0101878
-0.260639 -0.139669 0.00816227
5.73953e-016 3.87267e-016 -2.92744e-017
-0.451921 -0.228888 0.0102478
-0.237555 -0.156058 0.0114465
-0.250276 -0.137803 0.00815566
-0.841 0.000947917 0.00603161
1.92365e-028 -2.50977e-031 -2.82627e-031
1.42939e-029 -9.34558e-032 -1.78754e-031
-0.839938 0.0052119 0.00298626
-0.55654 0.00279126 0.00282091
-0.5012 -0.000362318 0.00637525
-0.929869 0.00411527 0.00362828
-2.46982e-029 3.50334e-029 6.51855e-029
-0.473338 0.00440402 0.00198009
-0.505796 0.006476 0.00357568
-3.86708e-029 3.35315e-031 1.96524e-031
-1.416e-029 1.94734e-031 1.59934e-031
-2.18765e-029 -9.67908e-031 -1.05171e-032
-4.55068e-017 1.95095e-018 3.11542e-019
-1.17763e-018 1.64833e-020 3.4548e-020
0.297297 -0.00205329 -0.00130034
-1.61506e-017 3.88052e-019 5.51174e-019
0.274395 -0.00504288 -0.00220936
0.28376 0.00474614 -0.010211
-8.48698e-029 1.39931e-030 -3.21846e-031
0.381341 -0.00638611 0.000706871
0.319092 -0.00977019 0.00214468
0.345665 -0.00696547 0.000834316
0.53068 -0.00836344 0.000116092
0.54843 -0.00563161 -8.7294e-005
0.483 -0.0104273 -0.000468875
-1.85393e-029 -2.35835e-031 3.20381e-032
-3.48125e-029 4.2551e-031 -2.16647e-032
5.36005e-017 -2.49548e-018 -2.96723e-019
4.68825e-017 -2.56127e-018 -4.47423e-019
0.278575 -0.00244782 -0.000746565
4.1998e-018 -2.04157e-019 -4.84078e-020
0.28641 -0.00349595 -0.00278277
-6.49493e-029 2.74779e-031 2.6398e-031
0.472378 0.00157557 -0.000704546
-4.32027e-029 1.53104e-031 1.11813e-031
0.289108 -0.00154776 -0.000825727
-9.73808e-017 1.62841e-019 6.98203e-019
0.370065 -0.00306309 -0.00186829
0.300752 -0.000110757 -0.000780811
0.495216 -0.00159058 -0.000800191
0.317753 0.000606234 -0.00218202
-1.73689e-029 1.3132e-031 -1.39924e-031
-5.11703e-029 7.70673e-033 -3.34216e-031
-5.95895e-029 3.24381e-031 -2.8816e-031
3.33299e-017 -5.27213e-019 8.29227e-019
-3.58589e-017 6.07259e-019 -7.95151e-019
0.292243 -0.00385863 0.00573506
-2.34246e-017 3.25308e-019 -3.84938e-019
0.303923 -0.00292594 0.00386407
0.303671 -0.00332318 0.0028859
1.47117e-030 -8.57803e-030 4.70314e-031
-0.180398 0.117411 -0.0216379
2.03541e-030 -3.9328e-030 6.01844e-031
0.0750661 0.217363 -0.0289934
-0.0600005 0.0856916 -0.00565505
-1.36502e-017 6.97344e-018 2.01272e-020
0.00881867 0.137798 -0.00697358
-0.0681111 0.0435108 -0.00511625
-0.0686417 0.180836 -0.0235567
-0.00390916 0.0772693 -0.00787088
-6.99927e-030 -3.88543e-030 -8.83246e-031
-5.64097e-029 -7.74462e-030 -1.17996e-030
-9.58927e-030 -2.08572e-029 2.74935e-031
0.20487 0.0453906 0.0362178
0.243214 0.0879117 0.0219756
0.256206 0.198333 0.0516572
2.9615e-030 5.49251e-029 -3.3954e-029
5.60529e-017 5.33015e-017 1.30262e-017
-6.9714e-017 -4.52727e-017 -1.35112e-017
-2.27362e-029 -2.10734e-031 6.91306e-032
1.55203e-029 3.82212e-019 -7.24074e-029
6.21565e-017 -1.59567e-018 -4.85963e-020
0.309057 -0.000106407 0.00128292
-0.0939103 -0.265976 0.00282869
1.69891e-030 3.44687e-030 -5.65371e-032
-0.152852 -0.264529 -0.00451086
3.78026e-030 8.50049e-030 5.02505e-032
-0.0602341 -0.138184 0.00369519
-0.127434 -0.273988 -0.00066046
-0.0606512 -0.146266 0.00229219
-0.0841039 -0.152603 0.00169605
9.95059e-018 1.96339e-017 -4.71325e-019
-0.0735177 -0.139872 -0.000105532
-0.288159 -0.325448 -0.0315927
-0.269063 -0.486849 -0.0342477
-0.118789 -0.184475 -0.0159662
-0.221625 -0.281972 -0.0387712
-0.287112 -0.416839 -0.0336961
-0.198104 -0.273257 -0.025681
-0.224976 -0.36861 -0.0417659
-0.13377 -0.20708 -0.0226495
-0.212872 -0.364325 -0.0305478
0.470654 0.00160935 8.45986e-005
-1.02248e-028 -2.80354e-031 3.69222e-031
-4.19215e-029 -1.97295e-031 5.62929e-032
0.483805 0.0021028 -0.000744077
0.307034 0.00245421 -0.000898848
0.290151 0.00241375 0.000644901
0.490768 0.00258473 -0.00106863
4.46745e-029 -8.8298e-030 -1.10936e-028
0.401643 -0.00144793 -0.00158959
0.353216 -0.000374583 -0.000337096
-1.83623e-029 2.68311e-032 1.71368e-032
-4.86631e-029 1.4076e-032 -7.26344e-033
-9.08532e-029 4.72413e-032 5.26822e-032
1.39617e-029 5.00829e-029 8.82558e-029
0.294659 -0.000461546 -0.000207302
6.39974e-017 3.17662e-019 -3.3878e-020
0.322973 0.000663518 0.000445319
-3.02986e-017 -1.00841e-019 2.95035e-020
0.294754 -7.74918e-005 -0.000408805
-2.75099e-029 4.9884e-032 -3.26851e-032
-5.33519e-029 5.80286e-032 -1.14759e-031
0.512645 -0.00058132 0.000266898
-9.21826e-029 1.24675e-031 -2.23335e-031
8.38508e-017 -2.09377e-019 4.16059e-019
0.386951 -0.000886367 0.000775403
-6.61442e-017 3.72757e-019 -1.68464e-019
0.397691 -0.000723516 0.00197951
3.14148e-017 5.69478e-020 2.07902e-019
0.377293 -0.00226669 0.000651683
0.469741 0.00114926 -0.000621757
-1.02033e-028 4.30297e-032 1.04437e-031
0.539378 8.6297e-005 -7.135e-005
0.344328 0.000249942 -0.000345356
0.47271 0.00198992 0.00042411
0.376402 -0.00155248 0.00111269
0.546018 0.00196883 -0.000950027
0.383042 0.000803773 -0.000343765
1.35756e-029 1.30033e-031 -1.0689e-031
-0.347473 -0.00529429 0.00475531
8.41095e-017 9.13167e-019 -5.24792e-018
-0.462667 -0.00486195 0.00487711
-0.754987 -0.010659 0.00460506
1.31279e-030 -6.34808e-029 4.25173e-030
1.52756e-031 -1.17217e-028 7.67275e-030
-0.00980699 0.694202 -0.0448013
0.000125311 0.704061 -0.0455794
-0.0121916 0.487267 -0.0331816
1.39812e-018 -9.58165e-017 6.4992e-018
-0.00809096 0.58304 -0.0382264
0.000622417 0.516543 -0.00410884
0.0119497 0.278352 0.00189531
0.00408476 0.522089 -0.0102883
0.000100868 0.354425 -0.00110753
0.00907284 0.424611 -0.00035145
0.00326736 0.521265 -0.0073972
0.000298751 0.439584 -0.00154738
0.00829465 0.41618 -0.00371059
0.0051095 0.34296 0.000257522
0.00182516 0.453974 -0.00452621
0.00721677 0.26789 0.00584353
0.00181295 0.376635 0.00464602
0.000909008 0.285776 0.00266993
8.91046e-029 1.6556e-030 7.16215e-031
1.49801e-028 3.01286e-030 1.04942e-030
2.67554e-029 3.11452e-031 1.30437e-031
-0.631215 -0.00809301 -0.00371258
-0.595153 -0.00887212 -0.00594598
-0.594845 -0.0100195 -0.00361207
-1.35957e-016 3.43941e-019 -1.91471e-018
-1.60605e-016 -2.95731e-018 -1.37511e-018
-1.52597e-016 -3.1303e-018 -1.87102e-018
7.76042e-031 2.9411e-030 -6.45785e-032
-0.164723 -0.492789 -0.00420784
4.33907e-030 2.16536e-029 1.42907e-031
1.63258e-030 8.01382e-030 -1.44461e-031
-0.0952895 -0.359022 0.00659175
4.70564e-030 -4.43333e-030 -2.84419e-029
-4.30608e-017 -2.11263e-016 7.44395e-018
-0.0852898 -0.361746 0.000975872