# vtk DataFile Version 2.0 
output.vtk, Created by Freefem++, via gregorio
ASCII
DATASET UNSTRUCTURED_GRID
POINTS 7451 double
-3.79965 2.23652 0.040848
-4.13429 2.05574 0.276253
-4.09122 2.24524 0.070091
-4.01836 2.27766 0.330071
-3.96697 2.14613 0.158551
-3.94543 2.24088 0.0554695
-3.90901 2.25709 0.185459
-4.11275 2.15049 0.173172
-4.07633 2.1667 0.303162
-4.05479 2.26145 0.200081
-4.81817 0.732763 -0.840268
-4.76136 0.37264 -0.736193
-5.12328 0.495929 -0.550642
-4.73872 0.559667 -0.434419
-4.78977 0.552702 -0.788231
-4.97072 0.614346 -0.695455
-4.77845 0.646215 -0.637344
-4.94232 0.434285 -0.643417
-4.75004 0.466153 -0.585306
-4.931 0.527798 -0.49253
-7.58244 -0.891248 -0.453516
-8 -0.559587 0.124298
-7.26059 -0.264226 0.250847
-7.58828 -0.999993 0.00381
-7.79122 -0.725418 -0.164609
-7.42152 -0.577737 -0.101334
-7.58536 -0.94562 -0.224853
-7.6303 -0.411906 0.187573
-7.79414 -0.77979 0.064054
-7.42444 -0.632109 0.127328
-5.46564 0.048234 0.998836
-5.51396 -0.351144 0.936321
-5.02851 -0.125769 0.598961
-5.56665 -0.148801 0.504295
-5.4898 -0.151455 0.967578
-5.24708 -0.0387675 0.798898
-5.51614 -0.0502835 0.751565
-5.27124 -0.238457 0.767641
-5.5403 -0.249972 0.720308
-5.29758 -0.137285 0.551628
-4.20269 -2.80441 0.102764
-3.63085 -2.57461 -0.287529
-4.13183 -2.29387 0.255347
-4.14432 -2.47254 -0.273935
-3.91677 -2.68951 -0.0923825
-4.16726 -2.54914 0.179055
-4.1735 -2.63848 -0.0855855
-3.88134 -2.43424 -0.016091
-3.88759 -2.52358 -0.280732
-4.13807 -2.38321 -0.009294
-6.25062 -0.085247 0.575431
-6.51584 -0.423084 -0.15939
-6.46019 0.447486 0.293263
-6.75561 -0.174737 0.413139
-6.38323 -0.254165 0.20802
-6.35541 0.181119 0.434347
-6.88822 -0.343655 0.0457285
-6.86039 0.09163 0.272055
-6.48801 0.012201 0.0669365
-4.88162 0.371746 0.655425
-4.51246 -0.112716 0.623981
-4.65723 0.09269 0.995695
-4.69704 0.129515 0.639703
-4.95507 0.122989 0.627193
-4.76942 0.232218 0.82556
-4.77049 -0.119243 0.611471
-4.58484 -0.010013 0.809838
-4.84287 -0.0165395 0.797328
-3.75099 1.20677 0.090288
-3.64118 0.745776 0.266863
-4.09568 0.790235 0.315934
-3.78936 1.07086 0.69071
-3.69609 0.976272 0.178575
-3.92333 0.998502 0.203111
-3.77017 1.13882 0.390499
-3.86843 0.768006 0.291399
-3.71527 0.908319 0.478787
-3.94252 0.930549 0.503322
-2.18572 0.40145 0.915881
-1.75478 0.245881 0.526965
-1.94554 -0.013967 0.999902
-1.76886 0.356252 0.93439
-1.97025 0.323665 0.721423
-2.06563 0.193741 0.957891
-1.97729 0.378851 0.925135
-1.85016 0.115957 0.763433
-1.76182 0.301067 0.730678
-1.8572 0.171143 0.967146
-5.06116 0.824959 0.710182
-4.88551 0.773989 0.80113
-4.92155 0.772883 0.437198
-5.01596 0.602336 0.857802
-4.97333 0.799474 0.755656
-4.99135 0.798921 0.57369
-5.03856 0.713647 0.783992
-4.90353 0.773436 0.619164
-4.95074 0.688163 0.829466
-4.96876 0.687609 0.6475
-2.34262 2.51752 0.051733
-2.4672 2.85727 -0.311185
-2.29554 2.81673 0.086134
-2.65762 2.74748 0.16058
-2.40491 2.6874 -0.129726
-2.31908 2.66712 0.0689335
-2.50012 2.6325 0.106157
-2.38137 2.837 -0.112526
-2.56241 2.80238 -0.0753025
-2.47658 2.7821 0.123357
-3.50303 -3.76846 -0.636668
-3.49422 -3.29308 -1.15018
-3.31427 -3.71149 -1.25136
-2.90724 -3.34218 -0.858121
-3.49863 -3.53077 -0.893424
-3.40865 -3.73997 -0.944014
-3.20514 -3.55532 -0.747394
-3.40425 -3.50228 -1.20077
-3.20073 -3.31763 -1.00415
-3.11076 -3.52683 -1.05474
-4.0054 2.49156 -0.125899
-3.5956 2.50054 -0.194198
-3.83412 2.54803 0.0159
-3.8005 2.49605 -0.160049
-3.90253 2.36404 -0.0425255
-3.91976 2.5198 -0.0549995
-3.69763 2.36853 -0.076675
-3.71486 2.52428 -0.089149
-3.81689 2.39228 0.028374
-3.73452 -3.68531 -1.05781
-3.52439 -3.6984 -1.15459
-3.61437 -3.4892 -1.104
-3.61877 -3.72688 -0.84724
-6.37864 0.944563 0.328331
-6.25891 0.813305 0.581838
-6.65332 0.772267 0.635298
-6.31878 0.878934 0.455085
-6.41941 0.696025 0.310797
-6.51598 0.858415 0.481815
-6.35955 0.630395 0.43755
-6.45612 0.792786 0.608568
-6.55675 0.609877 0.46428
1.62066 -0.841518 -0.540229
1.89324 0.238579 -0.195511
2.01627 -0.690819 -0.723027
2.25185 -0.211859 0.261412
1.75695 -0.30147 -0.36787
1.81846 -0.766169 -0.631628
1.93625 -0.526689 -0.139408
1.95475 -0.22612 -0.459269
2.07254 0.01336 0.0329505
2.13406 -0.451339 -0.230807
-2.56949 2.06853 0.305158
-2.91403 1.60744 0.564909
-3.02709 2.08175 0.021586
-2.87501 2.07662 0.630995
-2.74176 1.83799 0.435033
-2.79829 2.07514 0.163372
-2.72225 2.07258 0.468077
-2.97056 1.8446 0.293247
-2.89452 1.84203 0.597952
-2.95105 2.07919 0.32629
-5.39985 0.358755 0.933432
-5.34934 0.453264 0.543553
-5.56264 0.558471 0.829524
-5.70805 0.297641 0.954678
-5.37459 0.40601 0.738492
-5.48124 0.458613 0.881478
-5.55395 0.328198 0.944055
-5.45599 0.505868 0.686538
-5.52869 0.375452 0.749116
-5.63535 0.428056 0.892101
-4.17913 0.323834 -0.696515
-4.36183 0.516245 -0.417662
-4.60784 0.019305 -0.528365
-4.46586 0.364911 -0.72315
-4.27048 0.42004 -0.557088
-4.39349 0.17157 -0.61244
-4.3225 0.344372 -0.709832
-4.48483 0.267775 -0.473013
-4.41384 0.440578 -0.570406
-4.53685 0.192108 -0.625757
-5.9377 0.438799 -0.558905
-5.87927 0.529091 -0.848565
-6.25926 0.555743 -0.831354
-6.07929 0.245277 -0.969453
-5.90849 0.483945 -0.703735
-6.09848 0.497271 -0.695129
-6.00849 0.342038 -0.764179
-6.06927 0.542417 -0.839959
-5.97928 0.387184 -0.909009
-6.16928 0.40051 -0.900404
-3.64743 2.72944 0.180305
-3.74077 2.63873 0.0981025
-3.72354 2.48298 0.110576
-3.62151 2.61499 -0.0069465
-3.98168 0.388062 0.141859
-3.76543 0.320245 0.603448
-3.81143 0.566919 0.204361
-3.70331 0.533011 0.435156
-4.03868 0.589149 0.228897
-3.87356 0.354154 0.372653
-3.93055 0.55524 0.459691
-6.17342 0.027823 -0.593282
-6.59748 0.255766 -0.966739
-6.35964 0.547779 -0.240473
-6.21634 0.291783 -0.712318
-6.42837 0.405755 -0.899047
-6.30945 0.551761 -0.535914
-6.38545 0.141794 -0.78001
-6.26653 0.287801 -0.416878
-6.47856 0.401772 -0.603606
-5.98474 0.742767 -0.66955
-5.96122 0.590783 -0.614227
-6.122 0.649255 -0.750452
-5.93201 0.635929 -0.759057
-5.86659 0.345457 -0.129882
-5.96054 -0.099592 -0.035866
-6.02 0.18664 -0.361582
-6.11312 0.446618 -0.185177
-5.91357 0.122933 -0.082874
-6.06698 -0.0358845 -0.314574
-6.16009 0.224094 -0.13817
-1.10421 0.363269 -0.931684
-0.773878 0.737644 -0.67519
-0.520452 0.269543 -0.962988
-0.384634 0.008888 -0.353445
-0.939043 0.550457 -0.803437
-0.812329 0.316406 -0.947336
-0.74442 0.186079 -0.642564
-0.647165 0.503594 -0.819089
-0.579256 0.373266 -0.514317
-0.452543 0.139215 -0.658216
-2.85287 -3.00249 -1.21636
-3.23054 -2.92385 -1.196
-3.06719 -3.3306 -1.25351
-2.88006 -3.17233 -1.03724
-3.06889 -3.13301 -1.02706
-2.98722 -3.33639 -1.05581
-3.0417 -2.96317 -1.20618
-2.96003 -3.16654 -1.23493
-3.14886 -3.12722 -1.22475
-3.38618 -2.05134 -0.098565
-2.37808 -2.56123 -0.134541
-2.49252 -2.47812 0.422472
-2.41131 -1.89586 0.044632
-2.88213 -2.30628 -0.116553
-2.93935 -2.26473 0.161954
-2.89875 -1.9736 -0.0269665
-2.4353 -2.51967 0.143966
-2.39469 -2.22855 -0.0449545
-2.45192 -2.18699 0.233552
-1.85713 -0.413967 0.42138
-1.65927 -0.390905 0.920431
-1.2503 -0.077569 0.384148
-1.80595 -0.084043 0.474172
-1.70702 -0.072512 0.723698
-1.50254 0.084156 0.455557
-1.7582 -0.402436 0.670905
-1.55371 -0.245768 0.402764
-1.45478 -0.234237 0.652289
-2.09043 2.55218 0.167395
-2.0659 2.66009 -0.048555
-2.19298 2.68445 0.126765
-2.18072 2.73841 0.0187895
-2.07816 2.60614 0.05942
-2.21652 2.53485 0.109564
-2.20426 2.58881 0.001589
-4.01665 2.44382 0.136481
-3.97233 2.67361 0.084512
-3.92539 2.49592 0.0761905
-3.99449 2.55872 0.110496
-4.01103 2.46769 0.005291
-3.90323 2.61082 0.050206
-3.98887 2.58259 -0.0206935
-3.92754 1.80484 -0.220103
-4.28096 1.83407 -0.225431
-4.13592 1.88983 -0.461486
-4.146 2.03152 -0.278406
-4.10425 1.81945 -0.222767
-4.03173 1.84734 -0.340795
-4.03677 1.91818 -0.249254
-4.20844 1.86195 -0.343458
-4.21348 1.9328 -0.251918
-4.14096 1.96068 -0.369946
-4.04038 -5 0.949212
-3.62468 -5 1.26221
-3.84559 -4.54287 1.07336
-3.71487 -5 0.728948
-3.83253 -5 1.10571
-3.94299 -4.77144 1.01129
-3.87763 -5 0.83908
-3.73513 -4.77144 1.16779
-3.66977 -5 0.99558
-3.78023 -4.77144 0.901156
-1.37334 0.812082 -0.583544
-0.975724 0.961208 -0.275823
-1.19336 -0.166381 -0.273753
-1.17453 0.886645 -0.429683
-1.07361 0.774863 -0.629367
-1.28335 0.32285 -0.428648
-0.874801 0.849426 -0.475506
-1.08454 0.397413 -0.274788
-0.983618 0.285631 -0.474471
-3.83515 -1.82017 -0.741539
-3.34976 -1.58414 -0.592596
-3.50394 -2.07825 -1.02313
-3.59245 -1.70215 -0.667067
-3.66955 -1.94921 -0.882335
-3.61067 -1.93575 -0.420052
-3.42685 -1.83119 -0.807863
-3.36797 -1.81774 -0.345581
-3.44506 -2.06479 -0.560848
-2.72946 0.769161 0.094533
-2.75119 0.681139 -0.326037
-2.98528 1.02631 -0.281501
-3.08113 0.734324 -0.34324
-2.74032 0.72515 -0.115752
-2.85737 0.897737 -0.093484
-2.90529 0.751742 -0.124353
-2.86823 0.853726 -0.303769
-2.91616 0.707731 -0.334639
-3.03321 0.880319 -0.31237
-2.94023 -2.47675 -0.674772
-3.14499 -2.03044 -0.633684
-3.22209 -2.2775 -0.848951
-3.16321 -2.26404 -0.386669
-3.03914 -4.25341 0.579285
-2.64287 -3.80807 0.20828
-2.47531 -4.18593 0.714333
-2.97264 -3.41482 0.618231
-2.84101 -4.03074 0.393783
-2.75723 -4.21967 0.646809
-3.00589 -3.83412 0.598758
-2.55909 -3.997 0.461307
-2.80776 -3.61144 0.413255
-2.72397 -3.80037 0.666282
-2.39684 -0.595487 -0.803365
-1.98884 -0.54749 -0.836812
-2.24172 -0.466498 -0.098067
-2.21295 -0.01831 -0.514797
-2.19284 -0.571489 -0.820088
-2.31928 -0.530992 -0.450716
-2.3049 -0.306899 -0.659081
-2.11528 -0.506994 -0.46744
-2.1009 -0.2829 -0.675804
-2.22734 -0.242404 -0.306432
-3.36239 -4.55484 -1.31864
-3.11171 -4.25429 -0.873787
-2.86199 -4.55394 -1.36046
-2.79118 -5 -0.96439
-3.23705 -4.40456 -1.09621
-3.11219 -4.55439 -1.33955
-3.07678 -4.77742 -1.14151
-2.98685 -4.40411 -1.11712
-2.95144 -4.62714 -0.919088
-2.82658 -4.77697 -1.16243
-3.88203 2.65205 -0.416886
-3.48121 2.84727 -0.340672
-3.82273 3 -0.474998
-3.72541 2.76868 -0.627028
-3.68162 2.74966 -0.378779
-3.85238 2.82603 -0.445942
-3.80372 2.71037 -0.521957
-3.65197 2.92364 -0.407835
-3.60331 2.80798 -0.48385
-3.77407 2.88434 -0.551013
[...]
POINT_DATA 7451
 
FIELD FieldData 2
velocity 3 7451 double
-2.12084 -6.29549 0.101643
2.52685e-029 5.98992e-029 -3.00781e-030
8.14195e-030 2.28041e-029 -5.91801e-031
2.19087e-029 6.04336e-029 -2.72159e-030
-1.4577 -3.64587 0.152883
-1.33199 -3.72679 0.0974572
-1.437 -4.20509 0.169984
-3.41925e-017 -8.35382e-017 3.94503e-018
1.00729e-016 2.49539e-016 -1.7136e-017
3.50331e-030 -1.59322e-029 -1.42646e-030
3.41768e-029 1.81034e-029 1.39596e-031
-1.45869 -0.70891 -0.0288853
-2.22734 -0.712685 0.00339836
-2.65122 -1.76446 -0.0460159
-0.87503 -0.435316 0.0041591
-1.16842 -0.460743 0.0178426
-1.61679 -0.94899 -0.0138415
-1.91585 -0.757701 -0.00393435
-2.14724 -1.2823 -0.0328752
-2.45701 -1.16438 -0.0166163
3.2454e-028 -7.32643e-031 2.69959e-031
-2.87818 0.0228163 -0.00199694
-3.61326 0.000868391 -0.00014374
1.89815e-028 -6.7942e-031 2.22275e-031
-1.91606 0.00742151 -0.00311861
-2.86151 -0.00217341 -0.0106829
-4.74437e-016 5.18523e-019 -1.64864e-018
-3.36235 0.00334176 -0.000279454
-1.68472 0.0208732 -0.00503738
-2.56539 0.00656429 -0.00196921
1.12522e-028 1.36645e-029 3.28216e-031
7.52126e-029 5.44256e-030 1.16271e-030
-2.33429 -0.559254 -0.0855418
-2.98234 -0.231158 -0.0214707
-5.40313e-016 -1.29428e-017 -5.18206e-018
-1.49368 -0.203433 -0.0151626
-1.8558 -0.117972 -0.016926
-1.44029 -0.134483 -0.0316102
-1.79528 -0.0816523 -0.0166611
-2.69661 -0.366357 -0.0460001
1.81708e-029 2.5309e-028 -2.21316e-030
-0.120685 -2.07982 -0.0742548
1.84237e-029 3.00327e-028 -2.27371e-030
4.13618e-030 5.09481e-029 1.60328e-030
-0.117189 -1.3482 -0.0149779
2.28779e-016 2.46938e-015 -8.70405e-018
2.13588e-017 2.06398e-016 2.88544e-018
-0.122495 -1.49689 -0.0170124
-0.11731 -1.37464 -0.045677
2.88592e-016 2.94541e-015 4.11059e-017
-2.82 -0.0452751 -0.0101195
-3.32754 -0.0277003 -0.00524928
-3.03409 -0.0380376 -0.00855604
-3.38087 -0.00841936 -0.00591649
-3.73921 -0.0505899 -0.0112362
-3.29436 -0.049375 -0.0121081
-3.67358 -0.00915865 -0.00844546
-3.84214 -0.00881812 -0.00548801
-4.12275 -0.0482573 -0.00680532
-2.01495 -1.09129 0.0683349
-1.5532 -1.24821 -0.222038
6.10988e-029 4.10004e-029 1.07965e-030
-2.03181 -1.30423 -0.0503467
-2.31991 -0.866889 -0.0171505
-1.09694 -0.741652 0.0398528
-2.01754 -0.847802 -0.142145
-1.0933 -0.857991 -0.0774294
-1.33873 -0.53654 -0.0482545
-3.55767 -7.72556 0.00426713
-1.69034 -7.14048 -0.132758
-2.92011 -5.07127 0.129282
-2.09356 -5.71115 0.0737809
-2.77207 -7.57648 -0.112464
-3.28362 -6.44195 0.0868615
-3.19461 -7.21844 0.0661149
-2.47655 -6.19924 -0.00184817
-2.30139 -6.94339 -0.124935
-2.60383 -5.69584 0.161803
-6.61945e-029 1.95281e-029 -3.96101e-030
1.08463 -0.0918777 0.013008
-6.62926e-029 1.61742e-029 3.96715e-031
-1.31791e-029 2.30042e-031 -1.39907e-031
0.638859 -0.0687052 0.0158602
2.49462e-016 -9.10144e-018 1.30447e-017
1.06046e-017 -5.83927e-019 4.91199e-020
0.661742 -0.0454824 0.0210279
0.604084 -0.0158127 -0.00611095
-2.10599e-016 4.4699e-018 -2.44884e-018
9.76524e-017 5.12547e-017 -8.2261e-018
1.06238e-029 6.8648e-030 -8.36541e-031
-2.03813 -1.17555 0.12615
1.09216e-029 6.1292e-030 -6.75425e-031
4.99091e-017 3.0612e-017 -5.06816e-018
-1.13261 -0.620919 0.0840243
5.90448e-016 3.19175e-016 -2.92356e-017
-1.16024 -0.748138 0.108401
5.94075e-016 3.95647e-016 -4.95475e-017
-1.21603 -0.685575 0.0826611
-0.608085 -4.41349 -0.0976087
-0.387103 -5.67341 -0.150516
-0.229248 -4.36351 -0.0388364
-0.868074 -8.26199 -0.0864426
-0.521417 -5.34725 -0.0965396
-0.419571 -4.40031 -0.0727197
-0.783602 -6.61411 -0.106276
-0.336455 -5.38757 -0.0997543
-0.66199 -7.46106 -0.110281
-0.554387 -6.68385 -0.0614571
-0.0670469 -1.88649 -0.0968231
4.17693e-030 1.67303e-028 1.1587e-029
2.19569e-030 1.45041e-028 1.04498e-029
0.0147709 -1.94478 -0.135782
-0.0449631 -1.31227 -0.0964484
-0.0388485 -1.34521 -0.0995906
-0.0287359 -2.11492 -0.131022
-8.23546e-031 -7.98446e-029 -3.38368e-030
-0.0159061 -1.32674 -0.102305
-0.0087948 -1.20347 -0.0956716
1.83152e-029 7.14494e-029 -7.06539e-031
-1.67303 -7.68985 0.0172499
-0.93016 -4.46795 0.0214151
-1.15863 -4.91347 0.0531478
-1.1624 -3.85749 0.034788
-0.562893 -2.40128 0.00950846
-1.97688 -7.16265 0.042537
-1.4319 -6.54527 0.0327817
-1.50538 -5.4055 0.0606554
1.79035e-030 4.10894e-029 2.83124e-030
2.84959e-017 7.75995e-016 6.57924e-017
-2.75745e-017 -6.66869e-016 -5.63932e-017
-0.0540081 -1.21378 -0.0858116
3.52692e-029 5.62514e-031 9.25674e-032
4.66127e-029 6.30497e-031 2.10011e-031
6.10054e-029 6.0522e-031 3.13374e-031
2.50179e-016 5.10111e-018 1.16646e-018
-1.81758 -0.0433299 -0.00577218
-2.646e-029 -5.28779e-030 -2.57007e-030
-1.78529 -0.0182185 -0.00823103
-6.54132e-017 2.34499e-018 -3.56434e-019
-1.81729 -0.0175921 -0.00741097
-4.40917e-028 1.22726e-030 -1.29311e-031
1.42481 -0.000550993 0.00155933
-1.64241e-028 3.09107e-031 -3.60838e-031
1.38868 -0.00555461 0.00344762
1.24854 -0.00580807 0.00111078
-2.04674e-016 5.73738e-019 -7.77316e-019
1.13741 -0.00240097 0.00325107
1.19059 -1.28818e-005 0.003133
1.56279 -0.00425735 0.00423289
1.20108 -0.00498517 0.00471692
-1.43459 -5.62029 -0.293658
-2.00871 -6.01834 -0.619148
-2.67983 -9.18163 -0.135833
-1.61097 -6.92875 -0.316245
-1.87334 -6.21225 -0.472437
-2.22463 -8.11053 -0.271587
-1.63997 -6.62353 -0.367911
-2.79576 -8.62447 -0.384425
-1.88061 -6.54922 -0.470747
-2.44951 -8.79827 -0.300045
1.08492e-029 1.52359e-030 -2.43808e-031
-2.32699 -0.509888 0.0435376
2.32421e-029 1.84167e-030 -3.42502e-031
1.01592e-028 6.81684e-030 -3.27402e-031
-1.34014 -0.190149 0.0352961
-3.53741e-016 -2.4168e-017 1.01936e-017
4.91004e-016 1.32259e-017 -1.08707e-017
-1.29295 -0.165201 0.0288216
-1.34678 -0.105831 0.0202009
-7.98751e-017 -2.01309e-019 2.01946e-018
-1.08983 -1.96663 -0.101467
-2.47484 -3.0456 -0.0989512
-2.05133 -1.28653 -0.0251308
-1.37665 -1.21781 -0.068198
-1.82483 -2.699 -0.0932583
-1.58365 -1.71703 -0.0619215
-1.27382 -1.57116 -0.0854476
-2.25089 -2.12659 -0.0689239
-2.00416 -2.21516 -0.0861555
-1.80037 -1.36637 -0.0622351
-2.16106 -0.0445665 0.00966378
1.16321e-029 7.29084e-032 -6.40061e-032
1.01431e-028 1.03033e-030 -6.57422e-031
4.72925e-029 4.67502e-031 -1.39676e-031
-1.19649 -0.00577538 0.00910969
-1.1845 -0.0182281 0.0141227
-1.29283 -0.00843405 0.0103391
-8.66282e-016 -1.14594e-018 1.22572e-017
-4.17015e-016 2.38992e-018 6.4912e-018
-3.88164e-029 -3.20489e-030 6.57748e-030
-1.03004 -7.01404 0.0680664
-1.01825 -5.95078 0.0451083
-1.53055 -6.67774 0.0651898
-1.417 -7.73691 0.0261198
-1.79134 -4.63784 -0.108066
-0.343651 -4.76113 0.181552
-1.72238 -5.8601 -0.0984893
-0.973509 -5.95475 -0.0152283
-2.45183 -5.01865 -0.0110133
-1.1748 -4.7723 -0.0382095
-1.78272 -5.11817 0.0178897
-2.75744 -0.0335995 0.00134227
-1.30674e-016 4.27876e-019 3.4973e-019
-2.7566 -0.0291229 0.0110987
-1.77276 -0.0219059 0.0132918
-9.49453e-029 -4.32525e-030 7.66476e-030
-1.77864 -0.0167939 0.0198648
-1.61779 -0.0241739 0.00693207
-3.16182 -0.040646 0.0111361
-2.05161 -0.00687582 0.0136206
1.86805e-029 2.84717e-031 -8.77053e-032
-1.2105 -0.0188178 0.0123051
-2.7886e-016 -3.13185e-018 4.58147e-018
-3.69153e-016 -6.42846e-019 4.61498e-018
-3.67377 -0.190093 0.00312237
-4.03474 -0.150283 -0.0144081
-3.51427 -0.0961407 -0.00157692
-3.26775 -0.0744962 0.00864627
-4.04538 -0.185378 -0.00500702
-3.75027 -0.0949174 -0.00912118
-3.8814 -0.0921279 0.00128534
6.19351e-017 1.63779e-018 -6.65877e-020
-1.44658e-028 -1.49272e-030 -1.59955e-031
-5.48242e-029 -6.70569e-031 1.69499e-031
1.4025 0.00654128 -0.00163459
-9.36603e-017 -1.61119e-018 -6.16007e-020
4.0794e-029 -4.14204e-030 1.43275e-029
0.889921 0.0117121 -0.00603758
-9.79282e-017 -1.23213e-018 3.5149e-019
0.985484 0.00434493 -0.000736417
0.903207 0.013866 -0.00434291
-5.63656e-031 6.54036e-029 5.71782e-030
1.94314e-030 1.78808e-028 1.36735e-029
3.41868e-032 2.70589e-029 2.20314e-030
0.00817083 -1.19923 -0.100629
-0.0132447 -1.25222 -0.106543
-1.28594e-005 -1.16687 -0.0919286
5.53303e-018 -6.59881e-029 -3.03163e-030
1.71537e-019 -3.09467e-016 -2.76815e-017
-4.58366e-018 6.42466e-016 5.79892e-017
-0.039916 -2.61942 -0.0512145
0.12268 -2.12903 -0.0436383
0.120265 -2.20756 0.0862111
0.159947 -2.24697 0.00129815
0.0631253 -2.6991 -0.0487994
0.0537924 -2.72175 0.0236281
0.100014 -2.81527 -0.0264442
0.123468 -2.26427 0.0154024
0.13421 -2.2143 -0.0268076
0.140416 -2.32928 0.0520058
0.984113 -0.30535 -0.0672862
-8.20927e-029 2.61335e-030 7.36103e-031
1.35628 -0.0255503 -0.00502492
1.24672 -0.216399 0.00249015
0.766093 -0.0010837 0.00765382
1.26073 -0.0564432 -0.00857354
0.648925 -0.000472125 -0.0265622
1.24732 -0.0829149 -0.00561839
0.863297 0.0171306 -0.000459707
-3.9678e-017 -5.21175e-016 -4.49176e-018
2.09496e-030 2.43257e-029 4.97731e-031
-0.146659 -2.26446 -0.0198237
-0.157468 -2.27021 -0.0250856
-8.41561e-017 -1.0449e-015 -1.13203e-017
-0.318559 -2.45875 -0.0533734
-0.293896 -2.4141 -0.0775693
-1.44863e-016 -5.81719e-016 8.89903e-018
5.32633e-030 3.38927e-029 -2.68944e-031
-0.604551 -2.58488 0.0304205
2.48094e-016 1.30242e-015 -3.09355e-018
4.42293e-030 -2.16053e-029 2.0182e-031
-0.419188 -2.58188 -0.0127469
4.59189e-016 2.44177e-015 1.23866e-017
-2.77716 -5.52488 0.00682649
2.11663e-029 3.40863e-029 -3.1686e-031
1.16033e-029 2.17003e-029 1.6032e-031
8.90314e-030 1.72476e-029 -3.84658e-032
-1.78026 -3.02855 0.0110236
-1.75764 -3.22611 -0.0278817
-1.7377 -3.30381 -0.00559373
-8.90969e-016 -1.44764e-015 -8.40318e-018
-5.03664e-015 -8.44393e-015 4.76993e-018
-3.74236e-015 -6.69238e-015 -6.55275e-017
5.55884e-031 1.50727e-029 -6.41687e-031
8.76945e-031 4.383e-029 -2.29006e-030
2.7014e-030 7.31695e-029 -4.3066e-030
-0.0428241 -1.23272 0.0476409
1.79601e-017 7.05419e-016 -3.47894e-017
2.78824e-018 7.91309e-017 -4.27272e-018
-0.0307809 -0.914143 0.0374037
-1.52504e-017 -5.40672e-016 8.87441e-018
-0.0282717 -1.18062 0.0593278
-0.0408849 -1.12843 0.0634259
-1.69779e-028 1.4621e-030 -3.70983e-030
-1.72289e-028 -1.29091e-030 -4.38419e-031
1.4338 0.00561518 -0.000795497
7.46164e-017 1.02163e-018 1.28819e-018
-8.25736e-017 -5.88179e-019 -1.23654e-018
1.14646 0.00579653 0.0212173
-1.89824e-016 -2.01707e-018 -3.15452e-019
1.235 0.019802 0.00712239
1.11378 0.00800448 0.00149664
-2.59754e-019 -6.77874e-018 -4.03154e-019
0.0458896 -2.58588 -0.176911
8.18261e-030 3.77095e-028 2.20639e-029
-0.013451 -1.57003 -0.110164
4.22168e-017 6.81437e-016 8.01763e-017
-0.0719684 -2.27258 -0.109015
-0.0238354 -1.49064 -0.116913
0.000629384 -2.92536 -0.127445
-0.0640615 -2.40289 -0.137031
2.29678 -5.00321 0.259031
1.98043 -3.2345 -0.407293
-0.77454 -7.49639 0.327515
0.83411 -6.45945 -0.206675
2.2015 -4.66483 -0.0841359
1.00025 -7.08612 -0.110252
1.75248 -6.55884 -0.136451
1.08581 -5.19565 -0.121288
1.71893 -5.16815 -0.339781
0.220497 -7.08912 0.063899
0.0224742 -2.5685 -0.157538
-0.00523413 -2.70991 -0.15942
-0.0407363 -1.88677 -0.13173
-0.0167542 -2.84718 -0.11541
-0.000830206 -1.56765 0.0785171
0.060527 -2.03158 0.0252142
0.0667443 -1.56798 0.101455
0.00208876 -1.85634 0.112147
0.0330332 -1.96801 0.0473144
0.0355061 -1.69174 0.0962384
-0.00138129 -1.71804 0.0979574
0.0725842 -1.89691 0.0561938
0.0383057 -2.09751 0.0549273
0.0495946 -1.78648 0.111043
5.11905e-017 -3.31857e-016 -6.3278e-018
1.79314e-016 -4.25852e-018 -1.14552e-018
1.01909 -1.3294 -0.00138294
1.29573 -0.606363 -0.0182691
3.52725e-029 -2.77983e-029 9.27357e-030
0.625952 -1.1515 0.00175151
0.707235 -0.512821 0.0140485
0.651685 -0.510817 0.0384068
0.687084 -0.256688 0.0241853
1.32869 -1.03882 -0.0144085
-6.13003e-018 -2.78184e-016 -2.03515e-017
-0.0125762 -1.85438 -0.100571
-1.47664e-030 1.31856e-028 6.76485e-030
0.012069 -1.53782 -0.0461857
-0.0169476 -1.09001 -0.0709701
-1.02081e-017 -4.82012e-016 -5.47357e-017
-0.00362443 -1.02515 -0.0470375
0.00226441 -1.11212 -0.0712369
0.00509398 -1.72604 -0.0684796
0.00859081 -0.916964 -0.04173
1.30276e-029 7.86455e-029 -4.33837e-031
-0.821119 -7.57264 -0.0171135
1.23755e-029 2.5819e-028 -9.26699e-031
2.11857e-029 1.2173e-028 -3.08033e-031
-0.607639 -4.67787 0.0233844
-6.65699e-016 -6.34802e-015 4.02048e-017
3.82376e-030 -5.93258e-029 8.90288e-030
-0.38703 -4.67843 0.00333608
-0.58557 -4.57493 -0.0279287
-5.57896e-016 -5.42674e-015 -1.59176e-017
1.48854 -0.00138181 0.000215003
-6.25181e-029 5.69108e-032 -3.22622e-032
-6.49029e-029 8.41507e-032 3.104e-032
-1.10067e-028 1.69156e-031 2.72934e-032
1.06493 0.000821147 0.00017667
1.06835 -0.000890837 -0.000984269
1.06164 -0.000340221 -0.000231058
4.42664e-029 -2.75875e-019 4.06386e-019
4.08497e-029 -2.06551e-019 2.85353e-020
8.03682e-017 -3.13275e-020 -6.07414e-032
0.388612 -1.88086 -0.0154162
0.788617 -3.12893 -0.137436
0.615349 -2.82362 0.193467
0.178032 -2.5219 -0.0611255
0.711494 -2.86485 -0.0205631
0.566865 -2.43803 0.1007
0.236106 -2.48986 -0.00889167
0.796274 -3.27631 0.0182158
0.4273 -2.87096 -0.0921991
0.423782 -2.9647 0.0275915
-2.3136e-028 -6.36019e-031 1.25343e-031
-1.38657e-028 -5.58182e-031 2.58804e-031
-1.71204e-028 -6.47954e-031 3.29298e-031
1.39788 0.00639707 0.000496887
6.2166e-017 3.72917e-019 -2.42301e-019
1.20607e-018 2.83792e-021 -7.02142e-021
1.14101 0.00171275 -0.00377109
2.89233e-018 2.37762e-020 2.2846e-031
1.03909 0.0103709 -0.00175353
1.17636 0.00529398 -0.0054025
4.23064e-029 3.42365e-029 -4.45939e-030
-1.9956 -2.18802 0.313513
1.36084e-029 1.1319e-029 -1.95471e-030
-1.46604 -1.30275 0.212399
-1.21494 -0.796432 0.124256
3.16592e-015 2.54769e-015 -5.13283e-016
-1.99908 -1.59741 0.213405
-1.23592 -1.16265 0.22065
-1.1424 -0.801081 0.12702
-2.84866 -0.00257711 0.0176698
6.07091e-028 -5.94319e-031 -5.63172e-031
4.64921e-029 -1.73675e-031 -5.40775e-031
-2.83905 0.0122024 0.00620672
-1.92254 0.00163267 0.00640178
-1.75364 -0.00696416 0.0202012
-3.12361 0.00868723 0.00776872
-7.98427e-029 7.98259e-031 1.48296e-030
-1.63784 0.00932869 0.00155302
-1.75989 0.0177073 0.00914567
-1.15276e-028 -1.10422e-030 -3.74968e-031
-4.2417e-029 -7.74523e-031 8.26841e-032
-6.658e-029 5.39381e-031 3.15035e-031
-1.50733e-016 -5.24268e-018 1.85942e-019
-4.07434e-018 -1.09295e-019 -5.61923e-020
0.943829 0.0109751 0.00218462
-5.6254e-017 -1.84053e-018 -4.18655e-019
0.872286 0.0158299 -0.00610087
0.955351 0.00900445 0.0121432
-2.46483e-028 -1.69534e-030 9.20186e-031
1.18557 0.00890057 -0.00541228
1.0094 0.0104156 -0.00674481
1.07101 0.000313563 -0.00538698
1.56168 0.0049966 -0.00168906
1.59944 0.00333211 0.00124197
1.42958 0.00671029 -0.00322933
-5.31988e-029 -3.28691e-031 1.86262e-031
-9.96868e-029 -1.15145e-030 2.64976e-031
1.72946e-016 8.44227e-018 -1.38676e-018
1.46875e-016 6.35113e-018 -1.83273e-018
0.853967 0.0225579 -0.00481583
1.35538e-017 4.91154e-019 -1.82464e-019
0.87947 0.0102999 -0.0108648
-1.83441e-028 -1.04417e-030 2.47949e-031
1.39317 0.00828195 -0.00122918
-1.23475e-028 -6.73826e-031 7.46596e-032
0.885831 -0.000119157 -0.00148121
-3.01426e-016 -2.75844e-018 1.09296e-018
1.11333 0.00434441 -0.000962155
0.924802 0.00529202 -0.00116424
1.46089 0.00707493 -0.00128769
0.972973 0.0144462 -0.00550091
-5.05149e-029 3.47919e-031 -4.26176e-031
-1.47422e-028 6.7257e-032 -9.98292e-031
-1.71764e-028 1.02385e-030 -8.0864e-031
1.06397e-016 -1.68452e-018 2.79156e-018
-1.14639e-016 1.99017e-018 -2.59773e-018
0.904036 -0.0114348 0.0187934
-7.4681e-017 1.13792e-018 -1.2806e-018
0.938113 -0.00951497 0.0130456
0.938996 -0.0112842 0.00895983
-4.10875e-029 7.33993e-029 6.85349e-030
0.949134 -2.1003 -0.234879
-4.70527e-029 5.80219e-029 1.2518e-029
1.42966 -1.9006 -0.231762
0.664237 -0.971212 -0.0903802
-5.8482e-017 -5.92796e-017 1.15407e-017
0.79052 -1.17566 -0.118073
0.650435 -0.678217 -0.152768
1.2888 -2.23422 -0.318148
0.934701 -0.932123 -0.197196
-1.6298e-029 7.61308e-030 2.51391e-030
-1.52741e-028 1.15294e-029 2.09589e-030
-1.25793e-029 5.14712e-029 2.13932e-030
0.584494 -0.0924797 -0.0733379
0.594724 -0.121408 -0.0436138
0.499536 -0.341544 -0.119056
8.50535e-030 7.82246e-030 -6.9175e-030
7.94687e-017 -9.80878e-017 -4.08997e-017
-1.32775e-016 6.84105e-017 2.8448e-017
-6.33039e-029 -4.22884e-031 4.14106e-031
-4.10007e-017 -1.98863e-030 3.76114e-019
1.58825e-016 5.15439e-018 -2.28284e-018
0.916952 0.013217 -0.00772107
-1.86771 -6.67862 0.00322795
3.15757e-029 8.22899e-029 -1.08739e-031
-2.54166 -6.53747 0.0500423
7.09253e-029 2.09045e-028 -5.52778e-031
-1.29412 -3.60019 0.00998074
-2.35044 -6.7589 0.00983083
-1.29915 -3.93391 0.0222945
-1.63789 -3.88948 -0.00460664
2.22584e-016 5.24483e-016 3.40161e-018
-1.44919 -3.65896 0.00187114
-2.60813 -7.96924 0.17327
-3.47151 -9.1553 -0.0846047
-1.86971 -5.02364 0.370859
-1.84665 -8.10673 0.293006
-3.17902 -8.94201 0.0624824
-2.29796 -7.27304 0.367417
-2.66117 -8.84262 0.0903396
-1.76126 -6.25262 0.590785
-2.93168 -8.41024 0.191514
1.39148 0.00462218 0.000457425
-2.89229e-028 -1.08723e-030 9.40501e-031
-1.20429e-028 -6.37367e-031 8.4455e-032
1.42661 0.00789278 -0.000991525
0.939858 0.00667518 -0.001946
0.894717 0.00753561 0.00191955
1.44927 0.00861328 -0.00166284
1.32505e-028 -5.87695e-031 -1.18865e-029
1.21807 -0.00251838 -0.00404631
1.08333 -0.000168744 -4.18453e-005
-5.32651e-029 -4.62653e-031 9.04406e-032
-1.39543e-028 -4.90763e-031 3.4106e-032
-2.5756e-028 -9.49371e-031 8.1058e-033
4.05041e-029 6.59407e-030 1.1124e-029
0.910075 0.00659825 -0.00184137
2.03083e-016 1.59472e-018 -3.36671e-019
0.991869 0.00642892 0.00142471
-9.41797e-017 -5.38049e-019 4.09248e-020
0.904993 0.0054187 -0.000822411
-7.84029e-029 1.00205e-031 -2.91374e-032
-1.5121e-028 7.29285e-032 -2.77522e-031
1.48214 -0.00119059 -7.14074e-005
-2.59789e-028 4.26647e-031 -5.7007e-031
2.59761e-016 -2.98129e-019 9.82922e-019
1.17487 -0.00148524 0.00128242
-2.05311e-016 8.63906e-019 -4.36174e-019
1.20288 -0.000988476 0.00487497
9.65225e-017 1.86232e-019 6.0716e-019
1.14279 -0.00574399 0.00203125
1.38521 0.00510733 -0.00208706
-2.88359e-028 -5.32656e-031 2.63311e-031
1.58321 0.00375472 0.000619104
1.04995 0.00250742 -0.00214823
1.39884 0.00790187 0.00168764
1.14114 -0.00172492 0.00336241
1.59491 0.00925817 -0.00177149
1.16213 0.00543092 -0.000314384
4.45754e-029 3.51503e-031 -4.12576e-031
-1.22652 -0.0146509 0.0206608
3.02051e-016 2.37908e-018 -1.48262e-017
-1.62578 -0.0137261 0.0188298
-2.57073 -0.0328824 0.0174055
-5.09254e-030 1.98184e-028 -1.21919e-029
-2.73065e-031 3.49866e-028 -2.18976e-029
0.0410933 -2.34861 0.132667
-0.0028476 -2.37866 0.135255
0.0501267 -1.73744 0.112109
-6.06283e-018 3.56865e-016 -2.22285e-017
0.0336688 -2.01453 0.123488
-0.00282089 -1.88376 -0.021953
-0.068707 -1.61353 -0.0488859
-0.0151474 -1.74112 0.00826912
-0.00149817 -1.86303 -0.0295385
-0.0436636 -1.89069 -0.0386099
-0.0139881 -1.80986 -0.00575225
-0.00211751 -1.89552 -0.0321149
-0.0387277 -1.77114 -0.0181767
-0.0269778 -1.84025 -0.0383512
-0.00761393 -1.82507 -0.0151406
-0.0441642 -1.86768 -0.0794875
-0.0104536 -2.03446 -0.0697402
-0.00623823 -1.94464 -0.0551539
2.8983e-028 5.56023e-030 2.52505e-030
4.78169e-028 9.92183e-030 3.64235e-030
8.79261e-029 9.7502e-031 4.04236e-031
-2.20293 -0.0296893 -0.0126649
-2.0726 -0.030477 -0.0217084
-2.08072 -0.0347825 -0.0125164
-4.9727e-016 6.00716e-018 -5.87804e-018
-5.8173e-016 -1.12403e-017 -5.00857e-018
-5.52793e-016 -1.14152e-017 -7.01665e-018
1.26328e-029 5.16715e-029 -1.47875e-030
-2.60875 -8.02103 0.0257967
7.11121e-029 3.52879e-028 -3.54234e-031
2.67648e-029 1.33849e-028 -3.39638e-030
-1.64492 -6.74864 0.178415
-5.86474e-030 -4.30486e-029 -1.1703e-029
-8.01744e-016 -4.19363e-015 1.62495e-016
-1.51145 -6.77786 0.0547174
-1.46483 -6.70508 0.20039
-5.97648e-016 -3.38607e-015 8.65814e-017
-0.0232919 -1.49112 -0.0428278
-0.0433093 -1.63365 -0.0500131
-0.0219927 -1.69227 -0.0654816
-0.0102532 -1.87168 -0.0346583
-3.05636e-028 -1.05433e-030 8.84205e-031
-5.08964e-029 -6.78512e-032 6.15475e-032
-1.65294e-028 -7.87667e-031 5.28277e-031
5.12681e-029 -8.8817e-030 -8.08285e-030
1.11518 0.00849617 -0.00761617
6.8046e-029 -4.77589e-019 -8.9635e-030
0.982578 -0.00621167 0.000206859
4.71794e-029 -7.08695e-030 -9.95468e-030
1.03314 0.00997456 -0.000908316
-1.5718 -8.44234 -0.0556661
-1.3856 -7.0847 0.00318403
-1.81499 -7.87335 -0.0186323
-1.88291 -7.47676 -0.00655901
-1.2638 -8.46183 -0.0347406
-1.21494 -7.6533 0.00603222
-1.75455 -8.67057 -0.0197846
-1.83746e-028 6.53445e-032 -8.15633e-033