# vtk DataFile Version 2.0 
output.vtk, Created by Freefem++, via gregorio
ASCII
DATASET UNSTRUCTURED_GRID
POINTS 7451 double
-3.79965 2.23652 0.040848
-4.13429 2.05574 0.276253
-4.09122 2.24524 0.070091
-4.01836 2.27766 0.330071
-3.96697 2.14613 0.158551
-3.94543 2.24088 0.0554695
-3.90901 2.25709 0.185459
-4.11275 2.15049 0.173172
-4.07633 2.1667 0.303162
-4.05479 2.26145 0.200081
-4.81817 0.732763 -0.840268
-4.76136 0.37264 -0.736193
-5.12328 0.495929 -0.550642
-4.73872 0.559667 -0.434419
-4.78977 0.552702 -0.788231
-4.97072 0.614346 -0.695455
-4.77845 0.646215 -0.637344
-4.94232 0.434285 -0.643417
-4.75004 0.466153 -0.585306
-4.931 0.527798 -0.49253
-7.58244 -0.891248 -0.453516
-8 -0.559587 0.124298
-7.26059 -0.264226 0.250847
-7.58828 -0.999993 0.00381
-7.79122 -0.725418 -0.164609
-7.42152 -0.577737 -0.101334
-7.58536 -0.94562 -0.224853
-7.6303 -0.411906 0.187573
-7.79414 -0.77979 0.064054
-7.42444 -0.632109 0.127328
-5.46564 0.048234 0.998836
-5.51396 -0.351144 0.936321
-5.02851 -0.125769 0.598961
-5.56665 -0.148801 0.504295
-5.4898 -0.151455 0.967578
-5.24708 -0.0387675 0.798898
-5.51614 -0.0502835 0.751565
-5.27124 -0.238457 0.767641
-5.5403 -0.249972 0.720308
-5.29758 -0.137285 0.551628
-4.20269 -2.80441 0.102764
-3.63085 -2.57461 -0.287529
-4.13183 -2.29387 0.255347
-4.14432 -2.47254 -0.273935
-3.91677 -2.68951 -0.0923825
-4.16726 -2.54914 0.179055
-4.1735 -2.63848 -0.0855855
-3.88134 -2.43424 -0.016091
-3.88759 -2.52358 -0.280732
-4.13807 -2.38321 -0.009294
-6.25062 -0.085247 0.575431
-6.51584 -0.423084 -0.15939
-6.46019 0.447486 0.293263
-6.75561 -0.174737 0.413139
-6.38323 -0.254165 0.20802
-6.35541 0.181119 0.434347
-6.88822 -0.343655 0.0457285
-6.86039 0.09163 0.272055
-6.48801 0.012201 0.0669365
-4.88162 0.371746 0.655425
-4.51246 -0.112716 0.623981
-4.65723 0.09269 0.995695
-4.69704 0.129515 0.639703
-4.95507 0.122989 0.627193
-4.76942 0.232218 0.82556
-4.77049 -0.119243 0.611471
-4.58484 -0.010013 0.809838
-4.84287 -0.0165395 0.797328
-3.75099 1.20677 0.090288
-3.64118 0.745776 0.266863
-4.09568 0.790235 0.315934
-3.78936 1.07086 0.69071
-3.69609 0.976272 0.178575
-3.92333 0.998502 0.203111
-3.77017 1.13882 0.390499
-3.86843 0.768006 0.291399
-3.71527 0.908319 0.478787
-3.94252 0.930549 0.503322
-2.18572 0.40145 0.915881
-1.75478 0.245881 0.526965
-1.94554 -0.013967 0.999902
-1.76886 0.356252 0.93439
-1.97025 0.323665 0.721423
-2.06563 0.193741 0.957891
-1.97729 0.378851 0.925135
-1.85016 0.115957 0.763433
-1.76182 0.301067 0.730678
-1.8572 0.171143 0.967146
-5.06116 0.824959 0.710182
-4.88551 0.773989 0.80113
-4.92155 0.772883 0.437198
-5.01596 0.602336 0.857802
-4.97333 0.799474 0.755656
-4.99135 0.798921 0.57369
-5.03856 0.713647 0.783992
-4.90353 0.773436 0.619164
-4.95074 0.688163 0.829466
-4.96876 0.687609 0.6475
-2.34262 2.51752 0.051733
-2.4672 2.85727 -0.311185
-2.29554 2.81673 0.086134
-2.65762 2.74748 0.16058
-2.40491 2.6874 -0.129726
-2.31908 2.66712 0.0689335
-2.50012 2.6325 0.106157
-2.38137 2.837 -0.112526
-2.56241 2.80238 -0.0753025
-2.47658 2.7821 0.123357
-3.50303 -3.76846 -0.636668
-3.49422 -3.29308 -1.15018
-3.31427 -3.71149 -1.25136
-2.90724 -3.34218 -0.858121
-3.49863 -3.53077 -0.893424
-3.40865 -3.73997 -0.944014
-3.20514 -3.55532 -0.747394
-3.40425 -3.50228 -1.20077
-3.20073 -3.31763 -1.00415
-3.11076 -3.52683 -1.05474
-4.0054 2.49156 -0.125899
-3.5956 2.50054 -0.194198
-3.83412 2.54803 0.0159
-3.8005 2.49605 -0.160049
-3.90253 2.36404 -0.0425255
-3.91976 2.5198 -0.0549995
-3.69763 2.36853 -0.076675
-3.71486 2.52428 -0.089149
-3.81689 2.39228 0.028374
-3.73452 -3.68531 -1.05781
-3.52439 -3.6984 -1.15459
-3.61437 -3.4892 -1.104
-3.61877 -3.72688 -0.84724
-6.37864 0.944563 0.328331
-6.25891 0.813305 0.581838
-6.65332 0.772267 0.635298
-6.31878 0.878934 0.455085
-6.41941 0.696025 0.310797
-6.51598 0.858415 0.481815
-6.35955 0.630395 0.43755
-6.45612 0.792786 0.608568
-6.55675 0.609877 0.46428
1.62066 -0.841518 -0.540229
1.89324 0.238579 -0.195511
2.01627 -0.690819 -0.723027
2.25185 -0.211859 0.261412
1.75695 -0.30147 -0.36787
1.81846 -0.766169 -0.631628
1.93625 -0.526689 -0.139408
1.95475 -0.22612 -0.459269
2.07254 0.01336 0.0329505
2.13406 -0.451339 -0.230807
-2.56949 2.06853 0.305158
-2.91403 1.60744 0.564909
-3.02709 2.08175 0.021586
-2.87501 2.07662 0.630995
-2.74176 1.83799 0.435033
-2.79829 2.07514 0.163372
-2.72225 2.07258 0.468077
-2.97056 1.8446 0.293247
-2.89452 1.84203 0.597952
-2.95105 2.07919 0.32629
-5.39985 0.358755 0.933432
-5.34934 0.453264 0.543553
-5.56264 0.558471 0.829524
-5.70805 0.297641 0.954678
-5.37459 0.40601 0.738492
-5.48124 0.458613 0.881478
-5.55395 0.328198 0.944055
-5.45599 0.505868 0.686538
-5.52869 0.375452 0.749116
-5.63535 0.428056 0.892101
-4.17913 0.323834 -0.696515
-4.36183 0.516245 -0.417662
-4.60784 0.019305 -0.528365
-4.46586 0.364911 -0.72315
-4.27048 0.42004 -0.557088
-4.39349 0.17157 -0.61244
-4.3225 0.344372 -0.709832
-4.48483 0.267775 -0.473013
-4.41384 0.440578 -0.570406
-4.53685 0.192108 -0.625757
-5.9377 0.438799 -0.558905
-5.87927 0.529091 -0.848565
-6.25926 0.555743 -0.831354
-6.07929 0.245277 -0.969453
-5.90849 0.483945 -0.703735
-6.09848 0.497271 -0.695129
-6.00849 0.342038 -0.764179
-6.06927 0.542417 -0.839959
-5.97928 0.387184 -0.909009
-6.16928 0.40051 -0.900404
-3.64743 2.72944 0.180305
-3.74077 2.63873 0.0981025
-3.72354 2.48298 0.110576
-3.62151 2.61499 -0.0069465
-3.98168 0.388062 0.141859
-3.76543 0.320245 0.603448
-3.81143 0.566919 0.204361
-3.70331 0.533011 0.435156
-4.03868 0.589149 0.228897
-3.87356 0.354154 0.372653
-3.93055 0.55524 0.459691
-6.17342 0.027823 -0.593282
-6.59748 0.255766 -0.966739
-6.35964 0.547779 -0.240473
-6.21634 0.291783 -0.712318
-6.42837 0.405755 -0.899047
-6.30945 0.551761 -0.535914
-6.38545 0.141794 -0.78001
-6.26653 0.287801 -0.416878
-6.47856 0.401772 -0.603606
-5.98474 0.742767 -0.66955
-5.96122 0.590783 -0.614227
-6.122 0.649255 -0.750452
-5.93201 0.635929 -0.759057
-5.86659 0.345457 -0.129882
-5.96054 -0.099592 -0.035866
-6.02 0.18664 -0.361582
-6.11312 0.446618 -0.185177
-5.91357 0.122933 -0.082874
-6.06698 -0.0358845 -0.314574
-6.16009 0.224094 -0.13817
-1.10421 0.363269 -0.931684
-0.773878 0.737644 -0.67519
-0.520452 0.269543 -0.962988
-0.384634 0.008888 -0.353445
-0.939043 0.550457 -0.803437
-0.812329 0.316406 -0.947336
-0.74442 0.186079 -0.642564
-0.647165 0.503594 -0.819089
-0.579256 0.373266 -0.514317
-0.452543 0.139215 -0.658216
-2.85287 -3.00249 -1.21636
-3.23054 -2.92385 -1.196
-3.06719 -3.3306 -1.25351
-2.88006 -3.17233 -1.03724
-3.06889 -3.13301 -1.02706
-2.98722 -3.33639 -1.05581
-3.0417 -2.96317 -1.20618
-2.96003 -3.16654 -1.23493
-3.14886 -3.12722 -1.22475
-3.38618 -2.05134 -0.098565
-2.37808 -2.56123 -0.134541
-2.49252 -2.47812 0.422472
-2.41131 -1.89586 0.044632
-2.88213 -2.30628 -0.116553
-2.93935 -2.26473 0.161954
-2.89875 -1.9736 -0.0269665
-2.4353 -2.51967 0.143966
-2.39469 -2.22855 -0.0449545
-2.45192 -2.18699 0.233552
-1.85713 -0.413967 0.42138
-1.65927 -0.390905 0.920431
-1.2503 -0.077569 0.384148
-1.80595 -0.084043 0.474172
-1.70702 -0.072512 0.723698
-1.50254 0.084156 0.455557
-1.7582 -0.402436 0.670905
-1.55371 -0.245768 0.402764
-1.45478 -0.234237 0.652289
-2.09043 2.55218 0.167395
-2.0659 2.66009 -0.048555
-2.19298 2.68445 0.126765
-2.18072 2.73841 0.0187895
-2.07816 2.60614 0.05942
-2.21652 2.53485 0.109564
-2.20426 2.58881 0.001589
-4.01665 2.44382 0.136481
-3.97233 2.67361 0.084512
-3.92539 2.49592 0.0761905
-3.99449 2.55872 0.110496
-4.01103 2.46769 0.005291
-3.90323 2.61082 0.050206
-3.98887 2.58259 -0.0206935
-3.92754 1.80484 -0.220103
-4.28096 1.83407 -0.225431
-4.13592 1.88983 -0.461486
-4.146 2.03152 -0.278406
-4.10425 1.81945 -0.222767
-4.03173 1.84734 -0.340795
-4.03677 1.91818 -0.249254
-4.20844 1.86195 -0.343458
-4.21348 1.9328 -0.251918
-4.14096 1.96068 -0.369946
-4.04038 -5 0.949212
-3.62468 -5 1.26221
-3.84559 -4.54287 1.07336
-3.71487 -5 0.728948
-3.83253 -5 1.10571
-3.94299 -4.77144 1.01129
-3.87763 -5 0.83908
-3.73513 -4.77144 1.16779
-3.66977 -5 0.99558
-3.78023 -4.77144 0.901156
-1.37334 0.812082 -0.583544
-0.975724 0.961208 -0.275823
-1.19336 -0.166381 -0.273753
-1.17453 0.886645 -0.429683
-1.07361 0.774863 -0.629367
-1.28335 0.32285 -0.428648
-0.874801 0.849426 -0.475506
-1.08454 0.397413 -0.274788
-0.983618 0.285631 -0.474471
-3.83515 -1.82017 -0.741539
-3.34976 -1.58414 -0.592596
-3.50394 -2.07825 -1.02313
-3.59245 -1.70215 -0.667067
-3.66955 -1.94921 -0.882335
-3.61067 -1.93575 -0.420052
-3.42685 -1.83119 -0.807863
-3.36797 -1.81774 -0.345581
-3.44506 -2.06479 -0.560848
-2.72946 0.769161 0.094533
-2.75119 0.681139 -0.326037
-2.98528 1.02631 -0.281501
-3.08113 0.734324 -0.34324
-2.74032 0.72515 -0.115752
-2.85737 0.897737 -0.093484
-2.90529 0.751742 -0.124353
-2.86823 0.853726 -0.303769
-2.91616 0.707731 -0.334639
-3.03321 0.880319 -0.31237
-2.94023 -2.47675 -0.674772
-3.14499 -2.03044 -0.633684
-3.22209 -2.2775 -0.848951
-3.16321 -2.26404 -0.386669
-3.03914 -4.25341 0.579285
-2.64287 -3.80807 0.20828
-2.47531 -4.18593 0.714333
-2.97264 -3.41482 0.618231
-2.84101 -4.03074 0.393783
-2.75723 -4.21967 0.646809
-3.00589 -3.83412 0.598758
-2.55909 -3.997 0.461307
-2.80776 -3.61144 0.413255
-2.72397 -3.80037 0.666282
-2.39684 -0.595487 -0.803365
-1.98884 -0.54749 -0.836812
-2.24172 -0.466498 -0.098067
-2.21295 -0.01831 -0.514797
-2.19284 -0.571489 -0.820088
-2.31928 -0.530992 -0.450716
-2.3049 -0.306899 -0.659081
-2.11528 -0.506994 -0.46744
-2.1009 -0.2829 -0.675804
-2.22734 -0.242404 -0.306432
-3.36239 -4.55484 -1.31864
-3.11171 -4.25429 -0.873787
-2.86199 -4.55394 -1.36046
-2.79118 -5 -0.96439
-3.23705 -4.40456 -1.09621
-3.11219 -4.55439 -1.33955
-3.07678 -4.77742 -1.14151
-2.98685 -4.40411 -1.11712
-2.95144 -4.62714 -0.919088
-2.82658 -4.77697 -1.16243
-3.88203 2.65205 -0.416886
-3.48121 2.84727 -0.340672
-3.82273 3 -0.474998
-3.72541 2.76868 -0.627028
-3.68162 2.74966 -0.378779
-3.85238 2.82603 -0.445942
-3.80372 2.71037 -0.521957
-3.65197 2.92364 -0.407835
-3.60331 2.80798 -0.48385
-3.77407 2.88434 -0.551013
[...]
POINT_DATA 7451
 
FIELD FieldData 2
velocity 3 7451 double
-0.111437 -0.322935 0.00434142
1.36335e-030 3.03029e-030 -9.40043e-032
4.10451e-031 1.12256e-030 -2.60428e-032
1.12779e-030 2.96072e-030 -8.70757e-032
-0.0753928 -0.182492 0.0056228
-0.0672601 -0.185637 0.00431792
-0.0720875 -0.204502 0.00645239
-1.71893e-018 -4.08628e-018 1.53635e-019
5.04468e-018 1.21588e-017 -5.5843e-019
1.87171e-029 -7.95067e-030 -4.37763e-030
8.1133e-030 2.75568e-030 -1.50506e-031
-0.376477 -0.102701 0.000327656
-0.572376 -0.133037 0.00448264
-0.639382 -0.208557 0.00465513
-0.209375 -0.0730547 0.00561709
-0.282167 -0.08801 0.00759018
-0.371555 -0.136843 0.0069341
-0.489176 -0.125541 0.0050998
-0.539487 -0.16024 0.00399142
-0.614976 -0.17664 0.00556334
8.64905e-029 -2.26421e-031 2.51498e-032
-0.769971 0.00644681 -0.000585397
-0.992132 -9.84964e-005 -0.00035609
5.01359e-029 -1.88248e-031 4.7201e-032
-0.505142 0.00272483 -0.000170892
-0.76125 -0.000388594 -0.00230725
-1.2359e-016 1.73647e-019 -3.07813e-019
-0.910434 0.000986977 -8.63132e-005
-0.440395 0.00565339 -0.000924024
-0.677894 0.00166439 -0.000219611
2.95649e-029 2.73967e-030 4.49009e-032
1.95088e-029 1.09269e-030 2.13908e-031
-0.637374 -0.0784194 -0.00872866
-0.800273 -0.0485935 -0.00343865
-1.36204e-016 -5.63562e-018 -1.43636e-018
-0.38856 -0.0394834 -0.00323883
-0.482214 -0.0280678 -0.00291286
-0.370812 -0.0251069 -0.00597421
-0.463177 -0.0191481 -0.00452326
-0.723868 -0.0658123 -0.00535436
-3.90858e-030 -5.94474e-029 5.79168e-031
0.0271454 0.484547 0.0110721
-4.2978e-030 -6.98257e-029 7.81333e-031
-8.30888e-031 -1.02958e-029 -1.80563e-031
0.0235254 0.294233 0.00165652
-4.86531e-017 -5.30519e-016 5.51239e-018
-4.0722e-018 -4.09733e-017 -1.88021e-019
0.026577 0.335328 0.000626126
0.0232514 0.282131 0.00541264
-5.83023e-017 -6.0333e-016 -8.08385e-019
-0.754174 -0.0143176 -0.00237795
-0.903344 -0.00942462 -0.000666257
-0.820606 -0.0114847 -0.00156581
-0.913687 -0.0029901 -0.00101057
-1.01835 -0.0152039 -0.00236052
-0.892071 -0.015172 -0.0024505
-1.00369 -0.00421737 -0.00270648
-1.0532 -0.00278012 -0.000751105
-1.13884 -0.0152263 -0.00152464
-0.512582 -0.148918 0.00103852
-0.52383 -0.0726064 -0.0104674
1.68166e-029 3.81353e-030 1.21049e-031
-0.566375 -0.125695 -0.00492501
-0.626503 -0.120193 -0.00282056
-0.283593 -0.0853247 0.00202179
-0.580081 -0.0821548 -0.0114902
-0.315323 -0.0673313 -0.00675219
-0.358441 -0.0641289 -0.00584077
-0.373657 -0.405955 -0.00598544
-0.404169 -0.231958 -0.0109121
-0.528424 -0.286726 -0.00383784
-0.203295 -0.225606 0.00192444
-0.402031 -0.337963 -0.0100407
-0.451129 -0.346151 -0.00503607
-0.33634 -0.346031 -0.00273839
-0.481012 -0.266128 -0.00696725
-0.331111 -0.268263 -0.00332829
-0.364542 -0.273237 3.93179e-005
-1.44865e-029 -4.06291e-030 2.59611e-031
0.302893 0.033153 7.99937e-005
-1.79202e-029 -4.18333e-030 -4.93263e-031
-3.7709e-030 -1.40195e-031 -1.36366e-032
0.162816 0.0185526 -0.00102053
5.25469e-017 -7.09398e-019 2.57444e-018
2.81452e-018 1.39014e-019 5.79873e-021
0.187938 0.0119888 0.000718706
0.174581 0.00720833 0.00144364
-6.1439e-017 -7.62797e-019 -6.17773e-019
2.31362e-017 1.02297e-017 -1.87755e-019
2.4775e-030 1.05114e-030 -9.52539e-033
-0.462005 -0.183237 0.00126174
2.65318e-030 1.00775e-030 -1.71622e-032
1.1545e-017 5.43869e-018 -1.18058e-019
-0.263122 -0.11108 0.00151341
1.42933e-016 6.02624e-017 -4.87525e-019
-0.262533 -0.119345 0.00213056
1.4052e-016 6.72768e-017 -8.53266e-019
-0.289737 -0.116237 0.000845241
-0.0306185 -0.223348 -0.00478987
-0.0186922 -0.26987 -0.00486847
-0.0115568 -0.219657 -0.00162485
-0.0459884 -0.4437 -0.0033561
-0.0265726 -0.268937 -0.00443278
-0.021195 -0.222519 -0.003395
-0.0408686 -0.347 -0.00459399
-0.0169542 -0.270448 -0.00402045
-0.0344955 -0.390905 -0.00424218
-0.0286113 -0.348576 -0.00252616
0.0124976 0.352133 0.0150014
-6.89905e-031 -2.61676e-029 -1.54142e-030
-3.3889e-031 -2.05019e-029 -1.30714e-030
-0.00201361 0.296919 0.0187154
0.00711173 0.187045 0.0116099
0.00599306 0.185597 0.0119289
0.00474886 0.363869 0.0190367
2.17345e-029 4.42971e-030 6.33177e-029
0.00192443 0.173281 0.0125537
0.000681844 0.149982 0.0112438
9.00157e-031 3.42261e-030 -4.57041e-032
-0.0860413 -0.378704 0.00187458
-0.0453079 -0.21723 0.00171727
-0.0560502 -0.233653 0.00322995
-0.0569381 -0.186854 0.00229346
-0.0264705 -0.11373 0.00119775
-0.102584 -0.361056 0.00242074
-0.0717351 -0.322319 0.00244837
-0.0759037 -0.269484 0.00321869
-2.90534e-031 -5.9115e-030 -3.43484e-031
-4.05343e-018 -8.93888e-017 -6.96807e-018
4.02723e-018 7.90274e-017 5.97839e-018
0.00869566 0.176592 0.0100804
9.30074e-030 1.57584e-031 1.42584e-032
1.23169e-029 1.98645e-031 2.42443e-032
1.60489e-029 1.7728e-031 5.02614e-032
6.48384e-017 1.42559e-018 1.3662e-019
-0.479786 -0.0116993 -0.00102465
-4.2966e-030 -4.42174e-029 -2.23455e-029
-0.471097 -0.0059286 -0.000897305
-1.69143e-017 7.76687e-019 -4.07317e-020
-0.478474 -0.00537537 -0.00118423
-1.30386e-028 3.46311e-031 -5.64645e-032
0.42542 0.000288894 0.000547048
-4.83918e-029 6.09805e-032 -1.1704e-031
0.414547 -0.00164904 0.00113266
0.368978 -0.00140572 0.00032924
-5.98306e-017 1.04417e-019 -2.64683e-019
0.334461 -0.000419152 0.00114949
0.350406 0.000304039 0.000885194
0.468328 -0.000927387 0.0013771
0.353432 -0.00124415 0.00154304
-0.0716041 -0.278273 -0.00940487
-0.100929 -0.255077 -0.0133328
-0.151829 -0.501622 -0.00734521
-0.0755518 -0.287877 -0.00728002
-0.0931953 -0.288202 -0.0119869
-0.119042 -0.427095 -0.0101844
-0.0808446 -0.309494 -0.00955785
-0.153814 -0.432502 -0.0112683
-0.0910201 -0.277159 -0.0103301
-0.129838 -0.452235 -0.00894621
2.81875e-030 3.49402e-031 -5.58606e-032
-0.611547 -0.104372 0.00647027
6.09701e-030 4.59548e-031 -9.69906e-032
2.68338e-029 1.65728e-030 -1.2597e-031
-0.348208 -0.0430568 0.00856048
-9.13829e-017 -7.02195e-018 3.06686e-018
1.26918e-016 5.82349e-018 -3.66391e-018
-0.337212 -0.0383016 0.00741579
-0.35135 -0.0271976 0.00604261
-2.07405e-017 -7.27857e-019 7.28112e-019
-0.369327 -0.0920356 -0.0116007
-0.618563 -0.207499 -0.0060693
-0.662393 -0.098083 -0.00384425
-0.373983 -0.109646 -0.00446221
-0.514238 -0.151255 -0.00947747
-0.531488 -0.104408 -0.00829359
-0.375682 -0.104923 -0.00785786
-0.672541 -0.152842 -0.00724805
-0.525013 -0.163489 -0.00434468
-0.540803 -0.115037 -0.00453004
-0.574235 -0.0151112 0.00013596
3.03348e-030 4.7977e-032 1.33239e-033
2.68032e-029 4.11416e-031 -9.77728e-032
1.2379e-029 2.14158e-031 -1.39705e-032
-0.312309 -0.00433325 0.000432252
-0.30969 -0.00696992 0.00205542
-0.337548 -0.0052651 0.00138932
-2.23076e-016 -2.49638e-018 1.61184e-018
-1.07374e-016 -6.04673e-019 7.78751e-019
-9.95277e-030 -2.10105e-029 4.7094e-029
-0.0520631 -0.352014 0.00267305
-0.0507252 -0.29405 0.00232812
-0.0778294 -0.335285 0.0029301
-0.0729486 -0.392437 0.00190064
-0.657135 -0.133906 -0.0124489
-0.361172 -0.0395839 0.000132131
-0.52965 -0.18048 -0.0128536
-0.404602 -0.128226 -0.00580483
-0.609942 -0.227841 -0.00847798
-0.543243 -0.0876039 -0.00560929
-0.47823 -0.176526 -0.00179766
-0.737644 -0.0124795 0.00048089
-3.38737e-017 -1.0458e-020 5.64244e-020
-0.740132 -0.0099546 0.00151238
-0.465964 -0.00848482 0.00230171
-2.22875e-029 -3.00269e-029 5.90921e-029
-0.467126 -0.00656863 0.00335586
-0.423519 -0.00851575 0.00147895
-0.854661 -0.0144738 0.00179844
-0.541661 -0.00396587 0.00218535
4.90124e-030 1.04492e-031 1.241e-032
-0.316786 -0.00729033 0.000831176
-7.19937e-017 -1.42237e-018 5.97958e-019
-9.51717e-017 -1.13211e-018 3.32691e-019
-1.00604 -0.0470193 4.66481e-005
-1.11707 -0.0370734 -0.00178711
-0.957938 -0.0274336 -0.000447455
-0.888293 -0.0219382 0.000881155
-1.11874 -0.0457729 -0.000543764
-1.02537 -0.026876 -0.000904034
-1.06861 -0.0261324 0.00026476
1.79677e-017 -8.55792e-020 -2.74181e-019
-4.28706e-029 1.44274e-031 3.5031e-031
-1.60092e-029 1.5248e-032 8.34311e-032
0.418374 -0.00255586 -0.000832244
-2.75648e-017 1.87666e-019 3.49367e-019
1.19504e-029 -3.17389e-029 9.60638e-029
0.261094 -0.00166023 -0.00261262
-2.8566e-017 4.01334e-020 2.83472e-019
0.291437 -0.00230093 -0.00207085
0.264131 0.000536361 -0.00178255
8.81972e-032 -8.90749e-030 -7.33663e-031
-3.29178e-031 -2.76061e-029 -1.86708e-030
-3.5306e-033 -3.31881e-030 -2.56153e-031
-0.00133382 0.149654 0.0112004
0.00233625 0.15888 0.013
-2.44823e-005 0.144247 0.0104694
-8.92281e-019 2.84779e-030 5.188e-029
-7.80467e-020 3.22945e-017 2.73384e-018
7.36871e-019 -6.86862e-017 -6.26688e-018
0.0209412 0.731087 0.00614766
-0.0251566 0.540622 0.0075489
-0.0230806 0.573842 -0.0192805
-0.0261214 0.637565 -0.0042219
-0.00714222 0.779417 0.00909022
-0.00358809 0.812606 -0.00888441
-0.00662728 0.845287 0.00140414
-0.0255403 0.606155 -0.00459468
-0.0257936 0.590179 0.00334937
-0.0258373 0.626926 -0.0136416
0.333473 0.124348 0.018005
-2.35984e-029 -1.23272e-030 -1.70891e-031
0.403357 0.00916074 -0.00183097
0.360997 0.0753764 0.00437338
0.221495 0.00649063 0.000362915
0.371497 0.0215823 0.000882221
0.183069 0.00555622 0.00683419
0.370809 0.0358646 -0.00195667
0.244623 0.0026439 -0.00197585
-1.95842e-018 -2.4591e-017 -1.9455e-019
1.02399e-031 1.18306e-030 2.41293e-032
-0.00729917 -0.110288 -0.0008443
-0.00777339 -0.110362 -0.00122776
-4.12743e-018 -4.92146e-017 -5.59391e-019
-0.0154318 -0.119578 -0.00251331
-0.0143685 -0.117483 -0.0037548
-6.82846e-018 -2.72633e-017 4.87084e-019
2.56539e-031 1.61865e-030 -1.54679e-032
-0.0288662 -0.12316 0.00176405
1.15894e-017 6.09062e-017 -3.75112e-019
2.01052e-029 -6.55298e-030 -1.39452e-031
-0.0198848 -0.122604 -6.07356e-005
2.1051e-017 1.13437e-016 -2.47251e-019
-0.170736 -0.288887 0.00382969
1.35045e-030 1.93537e-030 -6.03702e-032
6.53184e-031 1.0908e-030 -3.03968e-032
4.8786e-031 8.7625e-031 -2.43395e-032
-0.106153 -0.164911 0.00520849
-0.0985192 -0.16338 0.00476108
-0.095316 -0.167223 0.00443472
-4.94558e-017 -7.62111e-017 3.33896e-018
-2.74615e-016 -4.43945e-016 1.82799e-017
-1.92676e-016 -3.30686e-016 1.29336e-017
-9.43695e-032 -2.5553e-030 8.34009e-032
-1.25113e-031 -6.4112e-030 2.66527e-031
-4.46058e-031 -1.2094e-029 5.54667e-031
0.00757367 0.283324 -0.00707851
-2.47773e-018 -8.94404e-017 3.79034e-018
-4.28911e-019 -1.07739e-017 4.92051e-019
0.00491017 0.157353 -0.00458394
2.20069e-018 6.66258e-017 -1.00317e-018
0.00406944 0.171756 -0.00689904
0.00660712 0.178492 -0.00782377
-4.93155e-029 -8.16427e-031 6.31058e-031
-5.17387e-029 -2.35566e-033 3.84707e-031
0.421328 -0.00216558 -0.000774862
2.25762e-017 1.99461e-019 -3.56586e-019
-2.46814e-017 -1.9731e-020 3.78147e-019
0.341436 0.00177108 -0.004926
-5.63195e-017 2.48557e-019 4.89538e-019
0.372865 0.00159577 -0.00341628
0.330537 -0.00248509 -0.00252922
6.46529e-020 1.08337e-018 6.31466e-020
0.00754751 0.474173 0.0250233
-2.2708e-030 -7.00801e-029 -3.24298e-030
0.00886524 0.258578 0.0152454
-9.83962e-018 -7.94628e-017 -1.28003e-017
0.0206645 0.441314 0.0166066
0.00844955 0.226145 0.0163402
0.015047 0.653205 0.0202063
0.0168594 0.451064 0.0216607
0.0219115 -0.0587052 -0.015799
0.0186676 -0.00523918 -0.0125121
-0.114792 -0.212743 -0.0143727
-0.119417 -0.0986609 -0.0218788
0.0188465 -0.0420567 -0.0154818
-0.0520024 -0.155762 -0.0181195
-0.0526147 -0.0984205 -0.020404
-0.0377777 -0.0935558 -0.0148047
-0.0437387 -0.0503463 -0.0177122
-0.110974 -0.160013 -0.0188956
-0.00200819 0.459311 0.0249275
0.00759044 0.499072 0.0253353
0.00799796 0.278275 0.0177737
0.00923494 0.667438 0.0213964
0.000609032 0.512386 -0.0158326
-0.0142958 0.592499 -0.00635306
-0.0131886 0.373945 -0.0166049
-0.000785807 0.543203 -0.0231865
-0.00694413 0.586327 -0.0118467
-0.00769802 0.475203 -0.0175399
0.000311896 0.528576 -0.020506
-0.0155261 0.509586 -0.0129262
-0.00866456 0.605004 -0.0140475
-0.00981229 0.477679 -0.0211244
1.7489e-017 5.97992e-017 4.04055e-018
5.2097e-017 2.14939e-018 -5.98662e-019
0.363995 0.432368 -0.0130647
0.271322 0.128389 -0.0169139
1.27017e-029 3.76425e-029 4.14885e-029
0.248912 0.316493 -0.0120465
0.186673 0.125673 -0.0167429
0.278478 0.179852 -0.0188859
0.213431 0.0669783 -0.0130837
0.347475 0.267708 -0.0186382
9.99679e-019 2.68194e-017 2.03022e-018
0.00238762 0.287442 0.0139796
2.13093e-031 -1.80512e-029 -8.04018e-031
-0.00187174 0.221303 0.00592394
0.00284798 0.132252 0.00806657
1.71871e-018 4.06031e-017 5.12004e-018
0.00068883 0.121342 0.00499741
2.02961e-005 0.13321 0.00762113
-0.000629063 0.260197 0.00906846
-0.0011113 0.10647 0.00423489
6.14284e-031 3.52876e-030 -4.41937e-032
-0.0405779 -0.349172 0.00160175
5.85207e-031 1.15095e-029 -1.03389e-031
9.87732e-031 5.27767e-030 -6.04364e-032
-0.0279543 -0.20421 0.00249462
-2.92223e-017 -2.62798e-016 3.89779e-018
2.23371e-029 -5.03567e-030 1.55603e-029
-0.0179754 -0.200964 0.00172632
-0.0263983 -0.192674 0.000708523
-2.39071e-017 -2.17437e-016 1.62192e-018
0.449172 -0.000180785 -8.97538e-005
-1.8213e-029 2.05829e-032 -3.88294e-033
-1.89255e-029 1.68712e-032 7.16266e-033
-3.21648e-029 4.36029e-032 1.04336e-032
0.310927 0.000176655 -7.77584e-005
0.312208 -0.000142037 -0.000261482
0.310243 -0.000153424 -4.8434e-005
1.28267e-029 -5.55161e-020 1.30724e-019
1.16084e-029 -2.00277e-020 1.4333e-020
2.30751e-017 -1.18935e-020 -1.3908e-030
0.171644 0.632051 -0.0258574
-0.0167331 0.818456 0.000745252
-0.0206071 0.725467 -0.0477316
0.0323416 0.721569 0.00981956
0.0771487 0.818162 -0.0196201
0.0543924 0.713764 -0.0402619
0.121888 0.761546 -0.0191238
-0.0233497 0.871552 -0.0271701
0.0453622 0.827846 0.0037731
0.0355071 0.867421 -0.0258994
-6.76923e-029 7.3783e-032 3.99639e-032
-4.01281e-029 7.69178e-032 1.12512e-031
-4.96171e-029 3.17599e-031 5.3118e-033
0.415733 -0.00292568 -0.000241761
1.77916e-017 8.3738e-020 -1.00867e-019
3.45342e-019 -1.34739e-022 -8.67317e-022
0.332772 7.76243e-005 -0.00136831
8.19421e-019 3.74282e-022 3.42833e-030
0.298998 0.000454674 -0.00115581
0.338508 -0.00172127 8.35825e-005
7.44271e-030 4.2268e-030 -8.29056e-032
-0.351461 -0.200538 0.00343004
2.54352e-030 1.44268e-030 -3.49286e-032
-0.242464 -0.150293 0.00329625
-0.237488 -0.123857 0.00263475
5.22894e-016 3.42528e-016 -1.12698e-017
-0.407106 -0.195464 0.00189146
-0.214732 -0.134353 0.00448512
-0.228216 -0.120858 0.00237343
-0.762741 0.000183517 0.00524909
1.63191e-028 -1.22166e-031 -2.30795e-031
1.22473e-029 -6.57707e-032 -1.50572e-031
-0.761453 0.00420692 0.00247348
-0.50819 0.0017046 0.00230202
-0.459578 -0.000903021 0.00569245
-0.841278 0.00312912 0.00297538
-2.12141e-029 3.27727e-029 6.10359e-029
-0.432427 0.00341668 0.0014117
-0.462983 0.00541213 0.00304572
-3.27645e-029 2.77887e-031 2.4046e-031
-1.20905e-029 1.1386e-031 1.32701e-031
-1.88738e-029 -6.82511e-031 1.19745e-031
-4.21285e-017 1.29018e-018 2.82278e-019
-1.10105e-018 9.78552e-021 3.51426e-020
0.269985 -0.00194288 -0.00157687
-1.51578e-017 2.05876e-019 5.10165e-019
0.249746 -0.00321714 -0.0014697
0.261668 0.00359062 -0.00987053
-7.0803e-029 8.10752e-031 -3.49193e-032
0.340463 -0.00451903 -0.000534889
0.286156 -0.00545522 0.000294867
0.308545 -0.00496049 0.000385667
0.465898 -0.00469348 -0.000679553
0.479585 -0.00364634 -0.000290931
0.424119 -0.00507828 -0.000887443
-1.55736e-029 -1.6215e-031 -2.55383e-033
-2.92923e-029 2.95881e-031 -3.97817e-033
4.93475e-017 -1.50234e-018 -1.83501e-019
4.27917e-017 -1.20812e-018 -3.10508e-019
0.250995 -0.0013072 -0.000557858
3.86573e-018 -1.33697e-019 -3.96768e-020
0.258142 -0.00279278 -0.00258863
-5.43187e-029 1.07545e-031 2.02142e-031
0.415162 0.00140459 -0.000584371
-3.62429e-029 6.74737e-032 8.73643e-032
0.259669 -0.00110293 -0.000670644
-8.82629e-017 -4.42578e-020 5.96199e-019
0.330988 -0.00171309 -0.00155383
0.270212 0.000189035 -0.000663263
0.43505 -0.000710194 -0.0006662
0.284981 0.00119111 -0.00196253
-1.46563e-029 1.05832e-031 -1.21193e-031
-4.29743e-029 1.90126e-032 -2.86603e-031
-5.00542e-029 2.88764e-031 -2.39177e-031
3.04469e-017 -4.88289e-019 7.78183e-019
-3.27778e-017 5.67331e-019 -7.35631e-019
0.262773 -0.00337829 0.0053156
-2.1381e-017 3.16985e-019 -3.59981e-019
0.27296 -0.00271387 0.00364574
0.272937 -0.00313094 0.00262182
1.45264e-030 -9.11092e-030 1.83566e-031
-0.172219 0.136719 -0.013595
1.89638e-030 -4.33608e-030 2.57614e-031
0.0652977 0.250328 -0.0129246
-0.0594274 0.0962556 -0.0036134
1.90838e-018 7.78644e-018 -8.45232e-021
0.0058492 0.156244 -0.00308664
-0.0659869 0.0508195 -0.00285284
-0.0687264 0.209574 -0.0103044
-0.00617138 0.0905115 -0.00322961
-6.0573e-030 -2.82268e-030 -5.77063e-031
-4.8025e-029 -6.49885e-030 -1.88069e-031
-8.03278e-030 -1.59324e-029 2.55379e-031
0.193331 0.0337085 0.0271559
0.228153 0.0714246 0.0132687
0.237115 0.163443 0.038235
2.59743e-030 5.12994e-029 -3.19788e-029
5.19142e-017 4.36454e-017 8.96493e-018
-6.58208e-017 -3.80757e-017 -9.37074e-018
-1.89327e-029 -6.7654e-032 -9.91774e-033
-1.22025e-017 -1.98459e-029 -3.94699e-020
4.72059e-017 -1.12197e-018 -1.39014e-019
0.275913 -0.000526612 0.000694351
-0.0919851 -0.288042 0.00186342
1.56232e-030 3.4149e-030 -3.50712e-032
-0.145313 -0.280704 -0.00262848
3.46648e-030 8.50825e-030 2.48801e-032
-0.0600117 -0.146655 0.00264857
-0.122838 -0.293535 -0.000597593
-0.0602338 -0.156049 0.00184414
-0.0824348 -0.16027 0.0009796
1.00146e-017 2.04558e-017 -2.49055e-019
-0.0719397 -0.146999 -0.000261589
-0.258901 -0.324425 -0.0144653
-0.237069 -0.459395 -0.00990717
-0.111592 -0.193837 -0.00732828
-0.198498 -0.283021 -0.0168084
-0.256089 -0.40678 -0.0121375
-0.180931 -0.280734 -0.0117769
-0.200922 -0.361554 -0.015036
-0.12295 -0.213372 -0.00861077
-0.193615 -0.366916 -0.0113509
0.413846 0.00118216 8.01378e-005
-8.51606e-029 -2.00017e-031 2.95915e-031
-3.51542e-029 -1.54357e-031 4.15001e-032
0.42461 0.00155368 -0.000660525
0.274691 0.00193353 -0.000632578
0.260428 0.00209055 0.000577878
0.431296 0.00205825 -0.000827947
3.74022e-029 -8.289e-030 -1.03898e-028
0.357813 -0.00127741 -0.001356
0.316197 -0.000348235 -0.000252587
-1.5457e-029 1.04821e-032 1.27357e-032
-4.07072e-029 1.03184e-032 -1.70723e-032
-7.56841e-029 3.86812e-033 2.60949e-032
1.1799e-029 4.69071e-029 8.26743e-029
0.264505 -0.000219878 -0.000212144
5.81973e-017 2.10973e-019 -3.24504e-021
0.289079 0.000646737 0.0005612
-2.72773e-017 -8.75652e-020 6.16698e-021
0.263868 9.90412e-005 -0.000221776
-2.29935e-029 3.4029e-032 -1.77316e-032
-4.44672e-029 3.08581e-032 -8.89801e-032
0.446195 -0.00042733 0.000151536
-7.66109e-029 1.0278e-031 -1.74937e-031
7.54947e-017 -1.32063e-019 3.27005e-019
0.344944 -0.000603261 0.00053761
-5.96065e-017 2.87919e-019 -1.34309e-019
0.353823 -0.000442494 0.00159852
2.81694e-017 5.48019e-020 1.79848e-019
0.335872 -0.00182134 0.000569513
0.412476 0.00120482 -0.000563153
-8.49194e-029 -8.87226e-033 9.76232e-032
0.47301 0.000224513 -5.73971e-005
0.307503 0.000435389 -0.00051792
0.416048 0.00177039 0.000401649
0.335199 -0.00108405 0.000912994
0.47763 0.00152405 -0.000796494
0.341262 0.000895954 -0.000294483
1.17106e-029 1.4056e-031 -6.04347e-032
-0.320765 -0.005865 0.0035243
7.80321e-017 1.02288e-018 -2.72835e-018
-0.426369 -0.00526997 0.00346146
-0.688246 -0.011984 0.00233988
9.15919e-031 -3.47777e-029 1.95246e-030
1.20196e-031 -6.34277e-029 3.50849e-030
-0.00690748 0.384452 -0.0219531
2.22321e-005 0.376335 -0.0225211
-0.00879864 0.265784 -0.0163847
9.28038e-019 -4.59972e-017 3.23068e-018
-0.00551398 0.303738 -0.0187866
0.000700234 0.585213 0.00573834
0.0131471 0.34852 0.00834934
0.00429534 0.550816 -0.00025501
0.000315932 0.461548 0.00666308
0.00987175 0.507307 0.00868823
0.00379627 0.57151 0.00204298
0.000566838 0.529987 0.00738117
0.0086666 0.482441 0.00417207
0.00586173 0.437824 0.0076737
0.00240477 0.53301 0.0039148
0.00816735 0.355318 0.0130923
0.00206867 0.481257 0.0139771
0.00111765 0.388631 0.0100065
7.59575e-029 1.36605e-030 3.23214e-031
1.27077e-028 2.68906e-030 4.57933e-031
2.29059e-029 2.82485e-031 5.73866e-032
-0.574951 -0.00742584 -0.00182214
-0.542517 -0.00930672 -0.00368626
-0.543135 -0.00952065 -0.00203757
-1.24696e-016 8.91481e-020 -9.89987e-019
-1.47974e-016 -2.71653e-018 -7.83058e-019
-1.40772e-016 -3.13417e-018 -1.19698e-018
5.77133e-031 1.9019e-030 -3.81435e-032
-0.133516 -0.347479 0.000446979
3.23862e-030 1.38594e-029 -1.48242e-032
1.20937e-030 5.1671e-030 -8.00297e-032
-0.0756927 -0.248462 0.0042965
4.50652e-030 -3.45263e-030 -2.6658e-029