# vtk DataFile Version 2.0 
output.vtk, Created by Freefem++, via gregorio
ASCII
DATASET UNSTRUCTURED_GRID
POINTS 7451 double
-3.79965 2.23652 0.040848
-4.13429 2.05574 0.276253
-4.09122 2.24524 0.070091
-4.01836 2.27766 0.330071
-3.96697 2.14613 0.158551
-3.94543 2.24088 0.0554695
-3.90901 2.25709 0.185459
-4.11275 2.15049 0.173172
-4.07633 2.1667 0.303162
-4.05479 2.26145 0.200081
-4.81817 0.732763 -0.840268
-4.76136 0.37264 -0.736193
-5.12328 0.495929 -0.550642
-4.73872 0.559667 -0.434419
-4.78977 0.552702 -0.788231
-4.97072 0.614346 -0.695455
-4.77845 0.646215 -0.637344
-4.94232 0.434285 -0.643417
-4.75004 0.466153 -0.585306
-4.931 0.527798 -0.49253
-7.58244 -0.891248 -0.453516
-8 -0.559587 0.124298
-7.26059 -0.264226 0.250847
-7.58828 -0.999993 0.00381
-7.79122 -0.725418 -0.164609
-7.42152 -0.577737 -0.101334
-7.58536 -0.94562 -0.224853
-7.6303 -0.411906 0.187573
-7.79414 -0.77979 0.064054
-7.42444 -0.632109 0.127328
-5.46564 0.048234 0.998836
-5.51396 -0.351144 0.936321
-5.02851 -0.125769 0.598961
-5.56665 -0.148801 0.504295
-5.4898 -0.151455 0.967578
-5.24708 -0.0387675 0.798898
-5.51614 -0.0502835 0.751565
-5.27124 -0.238457 0.767641
-5.5403 -0.249972 0.720308
-5.29758 -0.137285 0.551628
-4.20269 -2.80441 0.102764
-3.63085 -2.57461 -0.287529
-4.13183 -2.29387 0.255347
-4.14432 -2.47254 -0.273935
-3.91677 -2.68951 -0.0923825
-4.16726 -2.54914 0.179055
-4.1735 -2.63848 -0.0855855
-3.88134 -2.43424 -0.016091
-3.88759 -2.52358 -0.280732
-4.13807 -2.38321 -0.009294
-6.25062 -0.085247 0.575431
-6.51584 -0.423084 -0.15939
-6.46019 0.447486 0.293263
-6.75561 -0.174737 0.413139
-6.38323 -0.254165 0.20802
-6.35541 0.181119 0.434347
-6.88822 -0.343655 0.0457285
-6.86039 0.09163 0.272055
-6.48801 0.012201 0.0669365
-4.88162 0.371746 0.655425
-4.51246 -0.112716 0.623981
-4.65723 0.09269 0.995695
-4.69704 0.129515 0.639703
-4.95507 0.122989 0.627193
-4.76942 0.232218 0.82556
-4.77049 -0.119243 0.611471
-4.58484 -0.010013 0.809838
-4.84287 -0.0165395 0.797328
-3.75099 1.20677 0.090288
-3.64118 0.745776 0.266863
-4.09568 0.790235 0.315934
-3.78936 1.07086 0.69071
-3.69609 0.976272 0.178575
-3.92333 0.998502 0.203111
-3.77017 1.13882 0.390499
-3.86843 0.768006 0.291399
-3.71527 0.908319 0.478787
-3.94252 0.930549 0.503322
-2.18572 0.40145 0.915881
-1.75478 0.245881 0.526965
-1.94554 -0.013967 0.999902
-1.76886 0.356252 0.93439
-1.97025 0.323665 0.721423
-2.06563 0.193741 0.957891
-1.97729 0.378851 0.925135
-1.85016 0.115957 0.763433
-1.76182 0.301067 0.730678
-1.8572 0.171143 0.967146
-5.06116 0.824959 0.710182
-4.88551 0.773989 0.80113
-4.92155 0.772883 0.437198
-5.01596 0.602336 0.857802
-4.97333 0.799474 0.755656
-4.99135 0.798921 0.57369
-5.03856 0.713647 0.783992
-4.90353 0.773436 0.619164
-4.95074 0.688163 0.829466
-4.96876 0.687609 0.6475
-2.34262 2.51752 0.051733
-2.4672 2.85727 -0.311185
-2.29554 2.81673 0.086134
-2.65762 2.74748 0.16058
-2.40491 2.6874 -0.129726
-2.31908 2.66712 0.0689335
-2.50012 2.6325 0.106157
-2.38137 2.837 -0.112526
-2.56241 2.80238 -0.0753025
-2.47658 2.7821 0.123357
-3.50303 -3.76846 -0.636668
-3.49422 -3.29308 -1.15018
-3.31427 -3.71149 -1.25136
-2.90724 -3.34218 -0.858121
-3.49863 -3.53077 -0.893424
-3.40865 -3.73997 -0.944014
-3.20514 -3.55532 -0.747394
-3.40425 -3.50228 -1.20077
-3.20073 -3.31763 -1.00415
-3.11076 -3.52683 -1.05474
-4.0054 2.49156 -0.125899
-3.5956 2.50054 -0.194198
-3.83412 2.54803 0.0159
-3.8005 2.49605 -0.160049
-3.90253 2.36404 -0.0425255
-3.91976 2.5198 -0.0549995
-3.69763 2.36853 -0.076675
-3.71486 2.52428 -0.089149
-3.81689 2.39228 0.028374
-3.73452 -3.68531 -1.05781
-3.52439 -3.6984 -1.15459
-3.61437 -3.4892 -1.104
-3.61877 -3.72688 -0.84724
-6.37864 0.944563 0.328331
-6.25891 0.813305 0.581838
-6.65332 0.772267 0.635298
-6.31878 0.878934 0.455085
-6.41941 0.696025 0.310797
-6.51598 0.858415 0.481815
-6.35955 0.630395 0.43755
-6.45612 0.792786 0.608568
-6.55675 0.609877 0.46428
1.62066 -0.841518 -0.540229
1.89324 0.238579 -0.195511
2.01627 -0.690819 -0.723027
2.25185 -0.211859 0.261412
1.75695 -0.30147 -0.36787
1.81846 -0.766169 -0.631628
1.93625 -0.526689 -0.139408
1.95475 -0.22612 -0.459269
2.07254 0.01336 0.0329505
2.13406 -0.451339 -0.230807
-2.56949 2.06853 0.305158
-2.91403 1.60744 0.564909
-3.02709 2.08175 0.021586
-2.87501 2.07662 0.630995
-2.74176 1.83799 0.435033
-2.79829 2.07514 0.163372
-2.72225 2.07258 0.468077
-2.97056 1.8446 0.293247
-2.89452 1.84203 0.597952
-2.95105 2.07919 0.32629
-5.39985 0.358755 0.933432
-5.34934 0.453264 0.543553
-5.56264 0.558471 0.829524
-5.70805 0.297641 0.954678
-5.37459 0.40601 0.738492
-5.48124 0.458613 0.881478
-5.55395 0.328198 0.944055
-5.45599 0.505868 0.686538
-5.52869 0.375452 0.749116
-5.63535 0.428056 0.892101
-4.17913 0.323834 -0.696515
-4.36183 0.516245 -0.417662
-4.60784 0.019305 -0.528365
-4.46586 0.364911 -0.72315
-4.27048 0.42004 -0.557088
-4.39349 0.17157 -0.61244
-4.3225 0.344372 -0.709832
-4.48483 0.267775 -0.473013
-4.41384 0.440578 -0.570406
-4.53685 0.192108 -0.625757
-5.9377 0.438799 -0.558905
-5.87927 0.529091 -0.848565
-6.25926 0.555743 -0.831354
-6.07929 0.245277 -0.969453
-5.90849 0.483945 -0.703735
-6.09848 0.497271 -0.695129
-6.00849 0.342038 -0.764179
-6.06927 0.542417 -0.839959
-5.97928 0.387184 -0.909009
-6.16928 0.40051 -0.900404
-3.64743 2.72944 0.180305
-3.74077 2.63873 0.0981025
-3.72354 2.48298 0.110576
-3.62151 2.61499 -0.0069465
-3.98168 0.388062 0.141859
-3.76543 0.320245 0.603448
-3.81143 0.566919 0.204361
-3.70331 0.533011 0.435156
-4.03868 0.589149 0.228897
-3.87356 0.354154 0.372653
-3.93055 0.55524 0.459691
-6.17342 0.027823 -0.593282
-6.59748 0.255766 -0.966739
-6.35964 0.547779 -0.240473
-6.21634 0.291783 -0.712318
-6.42837 0.405755 -0.899047
-6.30945 0.551761 -0.535914
-6.38545 0.141794 -0.78001
-6.26653 0.287801 -0.416878
-6.47856 0.401772 -0.603606
-5.98474 0.742767 -0.66955
-5.96122 0.590783 -0.614227
-6.122 0.649255 -0.750452
-5.93201 0.635929 -0.759057
-5.86659 0.345457 -0.129882
-5.96054 -0.099592 -0.035866
-6.02 0.18664 -0.361582
-6.11312 0.446618 -0.185177
-5.91357 0.122933 -0.082874
-6.06698 -0.0358845 -0.314574
-6.16009 0.224094 -0.13817
-1.10421 0.363269 -0.931684
-0.773878 0.737644 -0.67519
-0.520452 0.269543 -0.962988
-0.384634 0.008888 -0.353445
-0.939043 0.550457 -0.803437
-0.812329 0.316406 -0.947336
-0.74442 0.186079 -0.642564
-0.647165 0.503594 -0.819089
-0.579256 0.373266 -0.514317
-0.452543 0.139215 -0.658216
-2.85287 -3.00249 -1.21636
-3.23054 -2.92385 -1.196
-3.06719 -3.3306 -1.25351
-2.88006 -3.17233 -1.03724
-3.06889 -3.13301 -1.02706
-2.98722 -3.33639 -1.05581
-3.0417 -2.96317 -1.20618
-2.96003 -3.16654 -1.23493
-3.14886 -3.12722 -1.22475
-3.38618 -2.05134 -0.098565
-2.37808 -2.56123 -0.134541
-2.49252 -2.47812 0.422472
-2.41131 -1.89586 0.044632
-2.88213 -2.30628 -0.116553
-2.93935 -2.26473 0.161954
-2.89875 -1.9736 -0.0269665
-2.4353 -2.51967 0.143966
-2.39469 -2.22855 -0.0449545
-2.45192 -2.18699 0.233552
-1.85713 -0.413967 0.42138
-1.65927 -0.390905 0.920431
-1.2503 -0.077569 0.384148
-1.80595 -0.084043 0.474172
-1.70702 -0.072512 0.723698
-1.50254 0.084156 0.455557
-1.7582 -0.402436 0.670905
-1.55371 -0.245768 0.402764
-1.45478 -0.234237 0.652289
-2.09043 2.55218 0.167395
-2.0659 2.66009 -0.048555
-2.19298 2.68445 0.126765
-2.18072 2.73841 0.0187895
-2.07816 2.60614 0.05942
-2.21652 2.53485 0.109564
-2.20426 2.58881 0.001589
-4.01665 2.44382 0.136481
-3.97233 2.67361 0.084512
-3.92539 2.49592 0.0761905
-3.99449 2.55872 0.110496
-4.01103 2.46769 0.005291
-3.90323 2.61082 0.050206
-3.98887 2.58259 -0.0206935
-3.92754 1.80484 -0.220103
-4.28096 1.83407 -0.225431
-4.13592 1.88983 -0.461486
-4.146 2.03152 -0.278406
-4.10425 1.81945 -0.222767
-4.03173 1.84734 -0.340795
-4.03677 1.91818 -0.249254
-4.20844 1.86195 -0.343458
-4.21348 1.9328 -0.251918
-4.14096 1.96068 -0.369946
-4.04038 -5 0.949212
-3.62468 -5 1.26221
-3.84559 -4.54287 1.07336
-3.71487 -5 0.728948
-3.83253 -5 1.10571
-3.94299 -4.77144 1.01129
-3.87763 -5 0.83908
-3.73513 -4.77144 1.16779
-3.66977 -5 0.99558
-3.78023 -4.77144 0.901156
-1.37334 0.812082 -0.583544
-0.975724 0.961208 -0.275823
-1.19336 -0.166381 -0.273753
-1.17453 0.886645 -0.429683
-1.07361 0.774863 -0.629367
-1.28335 0.32285 -0.428648
-0.874801 0.849426 -0.475506
-1.08454 0.397413 -0.274788
-0.983618 0.285631 -0.474471
-3.83515 -1.82017 -0.741539
-3.34976 -1.58414 -0.592596
-3.50394 -2.07825 -1.02313
-3.59245 -1.70215 -0.667067
-3.66955 -1.94921 -0.882335
-3.61067 -1.93575 -0.420052
-3.42685 -1.83119 -0.807863
-3.36797 -1.81774 -0.345581
-3.44506 -2.06479 -0.560848
-2.72946 0.769161 0.094533
-2.75119 0.681139 -0.326037
-2.98528 1.02631 -0.281501
-3.08113 0.734324 -0.34324
-2.74032 0.72515 -0.115752
-2.85737 0.897737 -0.093484
-2.90529 0.751742 -0.124353
-2.86823 0.853726 -0.303769
-2.91616 0.707731 -0.334639
-3.03321 0.880319 -0.31237
-2.94023 -2.47675 -0.674772
-3.14499 -2.03044 -0.633684
-3.22209 -2.2775 -0.848951
-3.16321 -2.26404 -0.386669
-3.03914 -4.25341 0.579285
-2.64287 -3.80807 0.20828
-2.47531 -4.18593 0.714333
-2.97264 -3.41482 0.618231
-2.84101 -4.03074 0.393783
-2.75723 -4.21967 0.646809
-3.00589 -3.83412 0.598758
-2.55909 -3.997 0.461307
-2.80776 -3.61144 0.413255
-2.72397 -3.80037 0.666282
-2.39684 -0.595487 -0.803365
-1.98884 -0.54749 -0.836812
-2.24172 -0.466498 -0.098067
-2.21295 -0.01831 -0.514797
-2.19284 -0.571489 -0.820088
-2.31928 -0.530992 -0.450716
-2.3049 -0.306899 -0.659081
-2.11528 -0.506994 -0.46744
-2.1009 -0.2829 -0.675804
-2.22734 -0.242404 -0.306432
-3.36239 -4.55484 -1.31864
-3.11171 -4.25429 -0.873787
-2.86199 -4.55394 -1.36046
-2.79118 -5 -0.96439
-3.23705 -4.40456 -1.09621
-3.11219 -4.55439 -1.33955
-3.07678 -4.77742 -1.14151
-2.98685 -4.40411 -1.11712
-2.95144 -4.62714 -0.919088
-2.82658 -4.77697 -1.16243
-3.88203 2.65205 -0.416886
-3.48121 2.84727 -0.340672
-3.82273 3 -0.474998
-3.72541 2.76868 -0.627028
-3.68162 2.74966 -0.378779
-3.85238 2.82603 -0.445942
-3.80372 2.71037 -0.521957
-3.65197 2.92364 -0.407835
-3.60331 2.80798 -0.48385
-3.77407 2.88434 -0.551013
[...]
POINT_DATA 7451
 
FIELD FieldData 2
velocity 3 7451 double
-0.12208 -0.348125 0.00931512
1.51496e-030 3.42054e-030 -1.84402e-031
4.40831e-031 1.20375e-030 -5.45032e-032
1.26606e-030 3.39995e-030 -1.68339e-031
-0.0831199 -0.202998 0.0110875
-0.0725517 -0.199859 0.00900525
-0.0799809 -0.231304 0.0119066
-1.87113e-018 -4.52391e-018 3.05197e-019
5.63965e-018 1.40061e-017 -1.06634e-018
1.85918e-029 -7.97677e-030 -4.33599e-030
8.77084e-030 2.93109e-030 -1.94304e-031
-0.409342 -0.109177 0.000921066
-0.624158 -0.142349 0.00718782
-0.703277 -0.230155 0.00583466
-0.226312 -0.0768781 0.00688595
-0.305323 -0.093053 0.0096842
-0.403946 -0.146745 0.00914058
-0.532925 -0.134148 0.00679433
-0.59016 -0.174375 0.00511199
-0.673259 -0.192269 0.00811542
9.41002e-029 -2.87463e-031 2.71265e-032
-0.843962 0.00726385 -0.000614813
-1.09968 2.15847e-005 -0.000574211
5.43533e-029 -2.17892e-031 5.1789e-032
-0.549986 0.00338457 5.79651e-005
-0.832402 -2.1747e-005 -0.00252185
-1.33916e-016 2.45768e-019 -3.1582e-019
-1.00323 0.00125839 -6.59472e-005
-0.477721 0.00630996 -0.000807352
-0.739309 0.00190792 -0.000175175
3.2034e-029 3.30924e-030 5.75326e-032
2.10953e-029 1.34762e-030 2.75996e-031
-0.697742 -0.103948 -0.0137055
-0.881233 -0.061616 -0.00505952
-1.05472e-016 -6.69721e-018 -1.03922e-018
-0.42151 -0.048135 -0.00392457
-0.524611 -0.033471 -0.0034933
-0.402365 -0.0312681 -0.00760845
-0.503857 -0.0231964 -0.00494517
-0.795099 -0.0850511 -0.00845952
-4.21448e-030 -6.45156e-029 1.52236e-030
0.0267609 0.440285 0.00458772
-4.59738e-030 -7.62388e-029 2.00889e-030
-8.12884e-031 -9.71376e-030 -2.26407e-032
0.0241273 0.296916 -0.00238668
-6.45344e-017 -7.23717e-016 1.50161e-017
-4.07913e-018 -4.135e-017 4.32813e-019
0.0273414 0.350365 -0.00418198
0.0225138 0.260389 0.00115144
-5.86545e-017 -6.28136e-016 8.5621e-018
-0.827632 -0.016205 -0.00240165
-0.998984 -0.00962943 -0.00214829
-0.899839 -0.0128704 -0.000971231
-1.00641 -0.00263981 -0.000992958
-1.12706 -0.0171908 -0.00313753
-0.981017 -0.0170618 -0.00231284
-1.11102 -0.00466578 -0.00378076
-1.1648 -0.00253007 -0.000503733
-1.26402 -0.0169243 -0.0015611
-0.561622 -0.185424 0.00462531
-0.568476 -0.101635 -0.0201448
1.82365e-029 4.99656e-030 1.91537e-031
-0.621407 -0.164329 -0.00810679
-0.686531 -0.153344 -0.00383057
-0.308647 -0.108584 0.00320347
-0.632863 -0.111234 -0.0188345
-0.341196 -0.0930056 -0.0102072
-0.388927 -0.0838873 -0.00822617
-0.427394 -0.451265 -0.0205563
-0.463017 -0.262279 -0.0452246
-0.601994 -0.332924 -0.0127024
-0.237611 -0.298201 0.000366827
-0.461834 -0.381829 -0.0357064
-0.51627 -0.394317 -0.017839
-0.3909 -0.413569 -0.0135549
-0.550024 -0.306337 -0.0288421
-0.383791 -0.325263 -0.0210773
-0.42006 -0.332092 -0.00559647
-1.66487e-029 -6.00188e-030 9.80161e-031
0.346528 0.04968 -0.00524962
-2.00506e-029 -5.75798e-030 -3.82618e-031
-4.23882e-030 -1.98473e-031 1.15079e-032
0.186733 0.0276548 -0.00499143
5.98843e-017 4.28488e-018 2.40824e-018
3.19762e-018 1.96071e-019 -1.41057e-020
0.211939 0.0157581 -0.000912285
0.197792 0.0101393 0.00143469
-6.88308e-017 -3.07779e-019 -9.16089e-019
2.49148e-017 1.15837e-017 -7.03351e-019
2.68669e-030 1.22507e-030 -5.23953e-032
-0.506601 -0.209205 0.00880479
2.87019e-030 1.17342e-030 -5.45106e-032
1.24612e-017 6.24662e-018 -3.93251e-019
-0.28562 -0.126211 0.00668895
9.80333e-017 4.40486e-017 -3.60885e-018
-0.285718 -0.137818 0.00775004
1.5187e-016 7.78175e-017 -3.47462e-018
-0.315109 -0.134499 0.00583985
-0.0331503 -0.237009 -0.0129512
-0.0203557 -0.252604 -0.00850246
-0.0125787 -0.236167 -0.00656958
-0.0520109 -0.498414 -0.0142151
-0.028899 -0.26804 -0.0107209
-0.0231133 -0.237695 -0.00992344
-0.0454001 -0.378779 -0.0154015
-0.0187022 -0.270509 -0.00903887
-0.0380217 -0.396975 -0.0117504
-0.0319699 -0.383009 -0.0109926
0.0115582 0.276666 0.00881924
-6.46615e-031 -2.04955e-029 -1.03449e-030
-3.2452e-031 -1.55908e-029 -8.81548e-031
-0.00174384 0.228074 0.0130189
0.00647869 0.145292 0.00803777
0.00565372 0.14237 0.00804473
0.00487725 0.28087 0.0121322
2.16165e-029 2.06336e-030 6.27661e-029
0.00234272 0.134909 0.00910347
0.00117165 0.116 0.00822343
9.40894e-031 3.47719e-030 -9.60631e-032
-0.0905959 -0.37308 0.0039191
-0.0484777 -0.230206 0.00487778
-0.0581117 -0.234225 0.00620324
-0.0603173 -0.194679 0.00604155
-0.027653 -0.117637 0.0033372
-0.110233 -0.373336 0.00573982
-0.0760644 -0.331077 0.00562192
-0.082285 -0.287839 0.00740898
-2.60556e-031 -4.58144e-030 -2.22102e-031
-3.67964e-018 -6.83058e-017 -4.94957e-018
3.57558e-018 6.11531e-017 4.33914e-018
0.00778701 0.138187 0.00667073
9.99694e-030 1.70516e-031 2.9457e-033
1.32443e-029 2.20545e-031 1.6141e-032
1.72771e-029 1.84051e-031 4.32718e-032
6.93448e-017 1.53183e-018 8.8655e-020
-0.518769 -0.0127457 -0.000544047
-4.81597e-030 -4.39864e-029 -2.22191e-029
-0.509301 -0.00646089 -0.000680715
8.06645e-017 -1.8366e-019 1.73951e-019
-0.518234 -0.00582983 -0.00105051
-1.45685e-028 3.69123e-031 -6.90773e-032
0.48275 0.00054687 0.000710403
-5.38855e-029 3.90422e-032 -1.26405e-031
0.470327 -0.00216899 0.00129158
0.414158 -0.00127834 0.00028435
-6.6476e-017 3.95599e-020 -3.01119e-019
0.373876 -0.000237794 0.00134248
0.391921 0.000678922 0.000859158
0.532563 -0.0010521 0.0016151
0.39529 -0.00116448 0.0017222
-0.0800318 -0.327666 -0.0271172
-0.117796 -0.337015 -0.0321389
-0.169963 -0.536391 -0.0246273
-0.0901069 -0.402674 -0.0200137
-0.106427 -0.359314 -0.0324242
-0.134019 -0.481909 -0.0317067
-0.0931964 -0.395704 -0.0277109
-0.177265 -0.515019 -0.0352862
-0.10742 -0.377043 -0.0265255
-0.151033 -0.547428 -0.0291617
3.0247e-030 3.99821e-031 -6.68445e-032
-0.666242 -0.122938 0.00994646
6.54048e-030 5.23995e-031 -1.15446e-031
2.90175e-029 1.93511e-030 -1.49681e-031
-0.375678 -0.0497416 0.0103067
-9.76969e-017 -7.76348e-018 3.43018e-018
1.35921e-016 6.22186e-018 -3.98041e-018
-0.363321 -0.0439803 0.0089171
-0.379163 -0.0310317 0.00701646
-2.21639e-017 -7.14458e-019 7.81314e-019
-0.40179 -0.102138 -0.0145029
-0.683112 -0.232512 -0.0113829
-0.725189 -0.113003 -0.00667899
-0.407179 -0.118059 -0.00517809
-0.564125 -0.169956 -0.0140279
-0.579971 -0.118568 -0.011408
-0.409045 -0.114361 -0.00961305
-0.739448 -0.174478 -0.0114864
-0.575829 -0.181554 -0.00667555
-0.590836 -0.127572 -0.0063595
-0.624828 -0.013648 0.00182408
3.25394e-030 3.87604e-032 -6.23614e-033
2.89662e-029 3.57234e-031 -1.46837e-031
1.33404e-029 1.81996e-031 -2.62379e-032
-0.336974 -0.00339986 0.00123876
-0.33449 -0.00632325 0.00279376
-0.36493 -0.00428803 0.00198638
-2.39175e-016 -1.93119e-018 2.07866e-018
-1.15293e-016 -2.55714e-019 1.02723e-018
-1.07174e-029 -2.08731e-029 4.68548e-029
-0.0585265 -0.39698 0.00532215
-0.055611 -0.321111 0.00551983
-0.0863437 -0.369645 0.00657736
-0.0792224 -0.414734 0.0041975
-0.736786 -0.149461 -0.0411007
-0.405805 -0.0434217 -0.018275
-0.60003 -0.201325 -0.0457242
-0.460312 -0.145323 -0.0358142
-0.69032 -0.25982 -0.0287512
-0.610549 -0.0962457 -0.0337289
-0.543282 -0.208591 -0.0198404
-0.808244 -0.0104427 0.000535862
-3.6578e-017 4.23303e-020 8.21735e-020
-0.808761 -0.00917589 0.00340063
-0.505682 -0.0074044 0.00297305
-2.42606e-029 -2.98189e-029 5.88106e-029
-0.505833 -0.00585268 0.00450889
-0.459469 -0.00799694 0.0017067
-0.93863 -0.0127526 0.00299174
-0.588968 -0.00291558 0.00299944
5.25846e-030 9.29098e-032 -7.0045e-033
-0.341559 -0.00648252 0.00196117
-7.71438e-017 -2.65643e-018 1.70658e-018
-1.0189e-016 -8.51137e-019 6.36716e-019
-1.1088 -0.0512515 0.00267895
-1.24171 -0.0416344 -0.00316309
-1.05576 -0.0267297 0.000615322
-0.975038 -0.0224858 0.00333373
-1.23993 -0.0505434 0.00013533
-1.13366 -0.0263948 -0.0014387
-1.1817 -0.0274453 0.00138719
1.97785e-017 -1.59457e-019 -3.14006e-019
-4.75516e-029 4.52541e-031 4.66509e-031
-1.76372e-029 5.28835e-032 9.27341e-032
0.473966 -0.00451614 -0.000888833
-3.04256e-017 2.8863e-019 4.44245e-019
1.31065e-029 -3.16037e-029 9.55328e-029
0.289857 -0.00294346 -0.0029272
-3.13619e-017 1.04648e-019 3.21225e-019
0.324323 -0.00362207 -0.00233959
0.292943 9.50773e-005 -0.00199988
7.66067e-032 -7.04787e-030 -5.48445e-031
-3.20914e-031 -2.18796e-029 -1.31433e-030
-6.42668e-033 -2.59327e-030 -1.94364e-031
-0.00129562 0.118178 0.00917901
0.00204194 0.125129 0.00992685
5.75497e-005 0.114142 0.00806038
-7.43239e-019 -5.74076e-017 -5.59394e-018
-8.13023e-020 2.62642e-017 2.38253e-018
-1.31957e-018 -5.56154e-017 -5.09717e-018
0.0218902 0.726556 -0.00395634
-0.0257972 0.526975 0.00086547
-0.0278401 0.707913 -0.031863
-0.0282886 0.67293 -0.0150482
-0.0074147 0.770681 -0.000548891
-0.00389522 0.913526 -0.0203623
-0.00667626 0.873106 -0.0113
-0.0282434 0.675163 -0.0121343
-0.0271982 0.60102 -0.00455149
-0.0295208 0.720533 -0.0247344
0.365365 0.15864 0.0229473
-2.58104e-029 -1.57813e-030 -1.54903e-031
0.453951 0.0145272 -0.00248103
0.406489 0.1025 0.000203762
0.245366 0.00659155 -0.000793519
0.420351 0.0318596 -0.00149913
0.195316 0.00473558 0.00835232
0.410886 0.0510358 -0.00179385
0.267532 0.000567939 -0.00324311
-1.98041e-018 -2.70599e-017 -1.13253e-018
1.07964e-031 1.22637e-030 5.7089e-032
-0.00760416 -0.119975 -0.00419263
-0.00812996 -0.115279 -0.00377375
-4.19433e-018 -5.20341e-017 -2.07904e-018
-0.016599 -0.129573 -0.00707423
-0.0153034 -0.122079 -0.00755574
-7.42068e-018 -3.00066e-017 1.09843e-018
2.76671e-031 1.75844e-030 -3.63946e-032
-0.0311701 -0.133327 0.00413703
1.24868e-017 6.63268e-017 -1.57038e-018
1.99788e-029 -6.57575e-030 -1.19218e-031
-0.0211864 -0.131131 0.00183804
2.18497e-017 1.18718e-016 -2.43037e-018
-0.183449 -0.295389 0.00776554
1.43778e-030 2.01228e-030 -1.08544e-031
6.7824e-031 1.09036e-030 -5.36835e-032
5.09126e-031 8.86788e-031 -4.51386e-032
-0.112674 -0.169928 0.00927737
-0.103025 -0.164962 0.00817103
-0.0999809 -0.169803 0.00844989
-5.13914e-017 -7.75988e-017 5.62342e-018
-2.86037e-016 -4.54223e-016 3.68891e-017
-1.97674e-016 -3.32302e-016 2.26275e-017
-1.25384e-031 -3.65302e-030 1.45116e-031
-1.89318e-031 -1.04263e-029 4.67134e-031
-5.99161e-031 -1.81453e-029 9.41694e-031
0.00982532 0.384216 -0.0118307
-3.40977e-018 -1.46412e-016 6.69708e-018
-5.60869e-019 -1.68072e-017 8.46945e-019
0.00633423 0.225368 -0.00788367
8.5208e-019 3.14979e-017 -6.21216e-018
0.00572456 0.273587 -0.0120673
0.00868722 0.269665 -0.0132966
-5.49375e-029 -7.21826e-032 1.23409e-030
-5.76984e-029 3.58863e-031 6.23248e-031
0.477435 -0.0112675 -1.14991e-006
2.51706e-017 3.46036e-020 -6.39339e-019
-2.73842e-017 1.58952e-019 6.23641e-019
0.382005 -0.0031093 -0.0082999
-6.22577e-017 5.37527e-019 6.17735e-019
0.418227 -0.00175249 -0.00596329
0.368539 -0.00549534 -0.0033569
6.05964e-020 8.99164e-019 4.26478e-020
0.00728372 0.403844 0.0165493
-2.15671e-030 -6.0031e-029 -2.13062e-030
0.00837166 0.219933 0.0105074
-4.37855e-018 -7.12736e-017 -9.20946e-018
0.0199337 0.396221 0.00918867
0.00766884 0.187266 0.0122534
0.0149902 0.593366 0.00948784
0.0160054 0.385082 0.0141539
0.0202441 -0.0546683 -0.0471735
0.0192008 -0.00978115 -0.0330164
-0.128209 -0.20853 -0.0346497
-0.134524 -0.0996999 -0.0460857
0.0179952 -0.041861 -0.0447713
-0.0616184 -0.157818 -0.0445165
-0.0622406 -0.0998553 -0.0535421
-0.0451902 -0.0925761 -0.0313578
-0.0509619 -0.0525713 -0.0400076
-0.125547 -0.157714 -0.0409006
-0.00173732 0.368008 0.0173488
0.00695042 0.414898 0.0174561
0.00725536 0.225378 0.0135278
0.00917465 0.588428 0.0121328
0.000706445 0.648334 -0.0246562
-0.0161713 0.680086 -0.012113
-0.0170221 0.508928 -0.0274093
-0.00074405 0.714727 -0.0373768
-0.00827002 0.713597 -0.0184749
-0.00966495 0.629384 -0.0282178
0.000367161 0.682225 -0.0315956
-0.0187879 0.636847 -0.0204602
-0.0103779 0.743715 -0.0221822
-0.0127171 0.642161 -0.0333621
1.77636e-017 5.36031e-017 3.70113e-018
5.66671e-017 1.40941e-018 1.25487e-019
0.399944 0.44594 -0.0204113
0.300307 0.107625 -0.0256457
1.34817e-029 3.65454e-029 4.12985e-029
0.26479 0.294994 -0.0147784
0.20062 0.112014 -0.01795
0.298312 0.168633 -0.016908
0.230494 0.0572085 -0.0124023
0.383079 0.25329 -0.0285492
8.12717e-019 2.0555e-017 1.63489e-018
0.00204271 0.209664 0.00850635
1.90226e-031 -1.32346e-029 -5.0751e-031
-0.00171541 0.156985 0.00307875
0.00234075 0.0987016 0.00580804
1.3345e-018 3.18346e-017 4.26915e-018
0.000614387 0.0886507 0.00341785
-4.53301e-006 0.0982474 0.00536935
-0.000663367 0.18738 0.0051305
-0.00105466 0.0774393 0.00293039
6.17668e-031 3.34673e-030 -7.01459e-032
-0.0414552 -0.323259 0.0021581
5.77324e-031 1.07466e-029 -1.09097e-031
9.85124e-031 4.88647e-030 -8.80563e-032
-0.0278825 -0.190615 0.00373774
-2.8645e-017 -2.43167e-016 5.59656e-018
2.2222e-029 -4.83868e-030 1.54947e-029
-0.0179793 -0.184379 0.00225194
-0.0258422 -0.176655 0.00181977
-2.29237e-017 -1.97934e-016 2.97059e-018
0.513409 -0.000294378 -0.00016449
-2.01065e-029 2.45579e-032 -4.87003e-033
-2.09043e-029 1.34958e-032 3.93459e-033
-3.56031e-029 4.89362e-032 6.13844e-033
0.345812 0.000147252 -7.68344e-005
0.347405 -0.000133214 -0.000226101
0.345345 -0.000290069 5.99904e-005
1.40919e-029 -7.15992e-020 -1.04663e-029
1.27773e-029 -7.70574e-022 -1.15278e-020
2.52895e-017 6.67944e-029 -1.3792e-030
0.199563 0.743912 -0.0433898
-0.0117504 0.808859 -0.0263795
-0.0174275 0.908758 -0.0821867
0.0357326 0.724834 -0.00370656
0.0909911 0.905793 -0.0491746
0.0677378 0.868636 -0.0711511
0.135731 0.846988 -0.0370207
-0.0181647 0.983194 -0.0613489
0.0518898 0.828014 -0.0173026
0.0427322 0.98569 -0.0527697
-7.529e-029 1.06382e-031 2.59772e-032
-4.43492e-029 8.76655e-032 9.4361e-032
-5.5051e-029 4.37716e-031 -4.28778e-032
0.469995 -0.00387053 5.33068e-005
1.96399e-017 -8.63455e-023 -1.01099e-019
1.95707e-017 -4.09101e-022 -5.21298e-022
0.371309 5.2174e-005 -0.00130917
9.03914e-019 -2.32671e-022 -8.83649e-022
0.331629 0.000479152 -0.00107296
0.37731 -0.00253641 0.000636298
8.15336e-030 4.74502e-030 -2.46416e-031
-0.392233 -0.23832 0.0121655
2.77725e-030 1.64787e-030 -1.04912e-031
-0.267339 -0.171396 0.0101617
-0.259564 -0.138793 0.00804968
5.71613e-016 3.85371e-016 -2.90724e-017
-0.44961 -0.226995 0.0103744
-0.236467 -0.155203 0.0115702
-0.249267 -0.137037 0.00816685
-0.836198 0.000881999 0.00597507
1.78138e-028 -2.25328e-031 -2.60117e-031
1.32489e-029 -8.54025e-032 -1.65339e-031
-0.835091 0.00512331 0.00294183
-0.55369 0.00270248 0.00277875
-0.498829 -0.000408049 0.00632765
-0.924331 0.00403303 0.00357144
-2.28967e-029 3.26308e-029 6.07195e-029
-0.470935 0.00432599 0.00192591
-0.503318 0.00639791 0.00353189
-3.58852e-029 3.42496e-031 2.20281e-031
-1.31549e-029 2.07733e-031 1.61029e-031
-2.03331e-029 -8.45802e-031 5.47703e-032
-4.54333e-017 2.0171e-018 3.7101e-019
-1.17602e-018 1.89555e-020 3.81e-020
0.296301 -0.00244517 -0.00169104
-1.61406e-017 4.2846e-019 5.91054e-019
0.273678 -0.00551956 -0.00235046
0.283115 0.00402797 -0.0109677
-7.86371e-029 1.28265e-030 -2.74707e-031
0.379399 -0.00629712 0.000559635
0.317452 -0.00963997 0.00205704
0.343943 -0.00690761 0.000788448
0.527439 -0.00804415 -6.17161e-005
0.544997 -0.00545209 -0.000153571
0.480024 -0.0103068 -0.000558553
-1.72058e-029 -1.52986e-031 2.01476e-032
-3.2304e-029 4.3299e-031 -2.00907e-032
5.3526e-017 -2.63805e-018 -3.03879e-019
4.67772e-017 -2.01134e-018 -4.34471e-019
0.277684 -0.00320435 -0.000731661
4.19243e-018 -2.11671e-019 -4.95106e-020
0.285386 -0.00398357 -0.00281186
-6.02245e-029 2.47399e-031 2.46008e-031
0.469617 0.00159994 -0.000687873
-4.00674e-029 1.40033e-031 1.04467e-031
0.28791 -0.00152071 -0.000815108
-9.70538e-017 1.54576e-019 6.99754e-019
0.368437 -0.00301592 -0.00188687
0.299508 -9.02536e-005 -0.000782164
0.492288 -0.00154804 -0.000793437
0.316399 0.000618744 -0.00218675
-1.61151e-029 1.21461e-031 -1.3014e-031
-4.74587e-029 8.42889e-033 -3.10568e-031
-5.5268e-029 3.0269e-031 -2.66975e-031
3.32341e-017 -5.25834e-019 8.28892e-019
-3.5758e-017 6.06563e-019 -7.93864e-019
0.291044 -0.00383564 0.00572505
-2.33559e-017 3.2604e-019 -3.84674e-019
0.302647 -0.00292152 0.00386278
0.302418 -0.00332666 0.00287531
1.37373e-030 -7.96764e-030 4.33202e-031
-0.179544 0.116458 -0.0214634
1.89094e-030 -3.64567e-030 5.55004e-031
0.0743938 0.217536 -0.0285492
-0.0598144 0.0853359 -0.00562993
-1.35793e-017 -6.0981e-018 2.95731e-019
0.0085465 0.137253 -0.00691376
-0.0678377 0.0432531 -0.00508937
-0.0684125 0.18025 -0.0232116
-0.00403728 0.0768716 -0.00780202
-6.50821e-030 -3.51486e-030 -7.64131e-031
-5.23243e-029 -7.23448e-030 -9.55983e-031
-8.8797e-030 -1.91729e-029 2.6861e-031
0.205092 0.0435109 0.0339919
0.242953 0.0864835 0.0201086
0.255675 0.195368 0.0491407
2.76015e-030 5.11516e-029 -3.16702e-029
5.59881e-017 5.22041e-017 1.22247e-017
-6.96602e-017 -4.46544e-017 -1.27385e-017
-2.10891e-029 -1.28465e-031 3.05741e-032
-1.34525e-017 -1.98512e-029 -6.74478e-029
5.20164e-017 -1.72736e-018 -3.70976e-021
0.307837 -0.000915141 0.00154942
-0.0936511 -0.265374 0.00270893
1.57763e-030 3.20363e-030 -5.12639e-032
-0.152284 -0.264041 -0.00473202
3.51088e-030 7.89568e-030 4.83838e-032
-0.060048 -0.137835 0.00367331
-0.127004 -0.273369 -0.000873899
-0.0604855 -0.145841 0.00228878
-0.0838392 -0.152318 0.00164185
9.92562e-018 1.95892e-017 -4.76709e-019
-0.0732945 -0.139547 -0.000117981
-0.286373 -0.32479 -0.0311618
-0.266865 -0.486267 -0.0321612
-0.118358 -0.184185 -0.0159448
-0.220293 -0.280986 -0.0380061
-0.285167 -0.415895 -0.032659
-0.197089 -0.27303 -0.0254899
-0.223476 -0.367712 -0.0401902
-0.133166 -0.20655 -0.0224594
-0.211594 -0.36395 -0.0299324
0.467911 0.00158524 8.76285e-005
-9.4767e-029 -2.55342e-031 3.39792e-031
-3.88756e-029 -1.81451e-031 5.19055e-032
0.480901 0.00209253 -0.000739012
0.30564 0.00241442 -0.000877167
0.288915 0.00239548 0.00064254
0.487871 0.00256682 -0.00105022
4.14286e-029 -8.22866e-030 -1.0335e-028
0.399684 -0.00145725 -0.00157435
0.351638 -0.000378869 -0.000336231
-1.70321e-029 2.51971e-032 1.57797e-032
-4.51155e-029 1.44642e-032 -7.98353e-033
-8.42062e-029 4.27907e-032 4.65969e-032
1.29537e-029 4.66589e-029 8.22237e-029
0.293389 -0.00046055 -0.000211324
6.37849e-017 3.13156e-019 -2.91802e-020
0.321507 0.000648563 0.000459446
-3.01738e-017 -9.83011e-020 2.67773e-020
0.293425 -7.99996e-005 -0.000393132
-2.55044e-029 4.58692e-032 -2.91894e-032
-4.94519e-029 5.24902e-032 -1.05274e-031
0.509246 -0.00057567 0.000251739
-8.54257e-029 1.1675e-031 -2.05566e-031
8.35118e-017 -2.04334e-019 4.09051e-019
0.385088 -0.0008708 0.000753206
-6.58816e-017 3.68005e-019 -1.65688e-019
0.395718 -0.000704483 0.00194997
3.12777e-017 5.71484e-020 2.06173e-019
0.37544 -0.00224295 0.000644982
0.466968 0.00116193 -0.000622151
-9.45613e-029 3.63286e-032 9.65602e-032
0.536092 0.000113451 -6.60034e-005
0.342716 0.000257736 -0.000358584
0.47 0.00199615 0.000424661
0.374549 -0.00152378 0.00110948
0.54259 0.00196627 -0.000933354
0.381183 0.000803411 -0.000338214
1.25904e-029 1.22275e-031 -9.69812e-032
-0.346031 -0.00532524 0.00467813
8.38002e-017 9.16356e-019 -3.24718e-018
-0.460667 -0.00488204 0.00479058
-0.750988 -0.0107608 0.00444546
1.20549e-030 -5.29576e-029 3.22815e-030
1.46909e-031 -9.74708e-029 5.78285e-030
-0.00957371 0.614721 -0.0365834
7.45268e-006 0.618579 -0.0373154
-0.0118704 0.426958 -0.0272038
1.33678e-018 -8.15703e-017 5.3842e-018
-0.00775838 0.50591 -0.0312801
0.000654687 0.567692 0.000269271
0.0123984 0.292364 0.00317592
0.00437133 0.572253 -0.00546636
0.000179024 0.378433 0.00148526
0.00944764 0.459646 0.00255976
0.00350819 0.573667 -0.00279857
0.000396201 0.477612 0.00172088
0.00866222 0.454505 -0.000605785
0.00540747 0.363877 0.00246595
0.00203216 0.498506 -0.000861855
0.00749339 0.274918 0.00683696
0.00187255 0.396681 0.00672023
0.000979837 0.294924 0.00426919
8.25583e-029 1.53253e-030 6.41738e-031
1.38733e-028 2.80781e-030 9.38085e-031
2.48005e-029 2.90282e-031 1.16581e-031
-0.627934 -0.00807815 -0.00355658
-0.592103 -0.00894212 -0.00578034
-0.591868 -0.0100039 -0.00349116
-1.35336e-016 3.2636e-019 -1.83342e-018
-1.59941e-016 -2.94593e-018 -1.3264e-018
-1.51985e-016 -3.13778e-018 -1.82018e-018
7.08235e-031 2.64721e-030 -5.92168e-032
-0.161918 -0.477211 -0.00314207
3.96029e-030 1.94475e-029 1.04934e-031
1.48829e-030 7.20331e-030 -1.30763e-031
-0.0933575 -0.347012 0.00651702
4.39425e-030 -4.05256e-030 -2.64992e-029