# vtk DataFile Version 2.0 
output.vtk, Created by Freefem++, via gregorio
ASCII
DATASET UNSTRUCTURED_GRID
POINTS 7451 double
-3.79965 2.23652 0.040848
-4.13429 2.05574 0.276253
-4.09122 2.24524 0.070091
-4.01836 2.27766 0.330071
-3.96697 2.14613 0.158551
-3.94543 2.24088 0.0554695
-3.90901 2.25709 0.185459
-4.11275 2.15049 0.173172
-4.07633 2.1667 0.303162
-4.05479 2.26145 0.200081
-4.81817 0.732763 -0.840268
-4.76136 0.37264 -0.736193
-5.12328 0.495929 -0.550642
-4.73872 0.559667 -0.434419
-4.78977 0.552702 -0.788231
-4.97072 0.614346 -0.695455
-4.77845 0.646215 -0.637344
-4.94232 0.434285 -0.643417
-4.75004 0.466153 -0.585306
-4.931 0.527798 -0.49253
-7.58244 -0.891248 -0.453516
-8 -0.559587 0.124298
-7.26059 -0.264226 0.250847
-7.58828 -0.999993 0.00381
-7.79122 -0.725418 -0.164609
-7.42152 -0.577737 -0.101334
-7.58536 -0.94562 -0.224853
-7.6303 -0.411906 0.187573
-7.79414 -0.77979 0.064054
-7.42444 -0.632109 0.127328
-5.46564 0.048234 0.998836
-5.51396 -0.351144 0.936321
-5.02851 -0.125769 0.598961
-5.56665 -0.148801 0.504295
-5.4898 -0.151455 0.967578
-5.24708 -0.0387675 0.798898
-5.51614 -0.0502835 0.751565
-5.27124 -0.238457 0.767641
-5.5403 -0.249972 0.720308
-5.29758 -0.137285 0.551628
-4.20269 -2.80441 0.102764
-3.63085 -2.57461 -0.287529
-4.13183 -2.29387 0.255347
-4.14432 -2.47254 -0.273935
-3.91677 -2.68951 -0.0923825
-4.16726 -2.54914 0.179055
-4.1735 -2.63848 -0.0855855
-3.88134 -2.43424 -0.016091
-3.88759 -2.52358 -0.280732
-4.13807 -2.38321 -0.009294
-6.25062 -0.085247 0.575431
-6.51584 -0.423084 -0.15939
-6.46019 0.447486 0.293263
-6.75561 -0.174737 0.413139
-6.38323 -0.254165 0.20802
-6.35541 0.181119 0.434347
-6.88822 -0.343655 0.0457285
-6.86039 0.09163 0.272055
-6.48801 0.012201 0.0669365
-4.88162 0.371746 0.655425
-4.51246 -0.112716 0.623981
-4.65723 0.09269 0.995695
-4.69704 0.129515 0.639703
-4.95507 0.122989 0.627193
-4.76942 0.232218 0.82556
-4.77049 -0.119243 0.611471
-4.58484 -0.010013 0.809838
-4.84287 -0.0165395 0.797328
-3.75099 1.20677 0.090288
-3.64118 0.745776 0.266863
-4.09568 0.790235 0.315934
-3.78936 1.07086 0.69071
-3.69609 0.976272 0.178575
-3.92333 0.998502 0.203111
-3.77017 1.13882 0.390499
-3.86843 0.768006 0.291399
-3.71527 0.908319 0.478787
-3.94252 0.930549 0.503322
-2.18572 0.40145 0.915881
-1.75478 0.245881 0.526965
-1.94554 -0.013967 0.999902
-1.76886 0.356252 0.93439
-1.97025 0.323665 0.721423
-2.06563 0.193741 0.957891
-1.97729 0.378851 0.925135
-1.85016 0.115957 0.763433
-1.76182 0.301067 0.730678
-1.8572 0.171143 0.967146
-5.06116 0.824959 0.710182
-4.88551 0.773989 0.80113
-4.92155 0.772883 0.437198
-5.01596 0.602336 0.857802
-4.97333 0.799474 0.755656
-4.99135 0.798921 0.57369
-5.03856 0.713647 0.783992
-4.90353 0.773436 0.619164
-4.95074 0.688163 0.829466
-4.96876 0.687609 0.6475
-2.34262 2.51752 0.051733
-2.4672 2.85727 -0.311185
-2.29554 2.81673 0.086134
-2.65762 2.74748 0.16058
-2.40491 2.6874 -0.129726
-2.31908 2.66712 0.0689335
-2.50012 2.6325 0.106157
-2.38137 2.837 -0.112526
-2.56241 2.80238 -0.0753025
-2.47658 2.7821 0.123357
-3.50303 -3.76846 -0.636668
-3.49422 -3.29308 -1.15018
-3.31427 -3.71149 -1.25136
-2.90724 -3.34218 -0.858121
-3.49863 -3.53077 -0.893424
-3.40865 -3.73997 -0.944014
-3.20514 -3.55532 -0.747394
-3.40425 -3.50228 -1.20077
-3.20073 -3.31763 -1.00415
-3.11076 -3.52683 -1.05474
-4.0054 2.49156 -0.125899
-3.5956 2.50054 -0.194198
-3.83412 2.54803 0.0159
-3.8005 2.49605 -0.160049
-3.90253 2.36404 -0.0425255
-3.91976 2.5198 -0.0549995
-3.69763 2.36853 -0.076675
-3.71486 2.52428 -0.089149
-3.81689 2.39228 0.028374
-3.73452 -3.68531 -1.05781
-3.52439 -3.6984 -1.15459
-3.61437 -3.4892 -1.104
-3.61877 -3.72688 -0.84724
-6.37864 0.944563 0.328331
-6.25891 0.813305 0.581838
-6.65332 0.772267 0.635298
-6.31878 0.878934 0.455085
-6.41941 0.696025 0.310797
-6.51598 0.858415 0.481815
-6.35955 0.630395 0.43755
-6.45612 0.792786 0.608568
-6.55675 0.609877 0.46428
1.62066 -0.841518 -0.540229
1.89324 0.238579 -0.195511
2.01627 -0.690819 -0.723027
2.25185 -0.211859 0.261412
1.75695 -0.30147 -0.36787
1.81846 -0.766169 -0.631628
1.93625 -0.526689 -0.139408
1.95475 -0.22612 -0.459269
2.07254 0.01336 0.0329505
2.13406 -0.451339 -0.230807
-2.56949 2.06853 0.305158
-2.91403 1.60744 0.564909
-3.02709 2.08175 0.021586
-2.87501 2.07662 0.630995
-2.74176 1.83799 0.435033
-2.79829 2.07514 0.163372
-2.72225 2.07258 0.468077
-2.97056 1.8446 0.293247
-2.89452 1.84203 0.597952
-2.95105 2.07919 0.32629
-5.39985 0.358755 0.933432
-5.34934 0.453264 0.543553
-5.56264 0.558471 0.829524
-5.70805 0.297641 0.954678
-5.37459 0.40601 0.738492
-5.48124 0.458613 0.881478
-5.55395 0.328198 0.944055
-5.45599 0.505868 0.686538
-5.52869 0.375452 0.749116
-5.63535 0.428056 0.892101
-4.17913 0.323834 -0.696515
-4.36183 0.516245 -0.417662
-4.60784 0.019305 -0.528365
-4.46586 0.364911 -0.72315
-4.27048 0.42004 -0.557088
-4.39349 0.17157 -0.61244
-4.3225 0.344372 -0.709832
-4.48483 0.267775 -0.473013
-4.41384 0.440578 -0.570406
-4.53685 0.192108 -0.625757
-5.9377 0.438799 -0.558905
-5.87927 0.529091 -0.848565
-6.25926 0.555743 -0.831354
-6.07929 0.245277 -0.969453
-5.90849 0.483945 -0.703735
-6.09848 0.497271 -0.695129
-6.00849 0.342038 -0.764179
-6.06927 0.542417 -0.839959
-5.97928 0.387184 -0.909009
-6.16928 0.40051 -0.900404
-3.64743 2.72944 0.180305
-3.74077 2.63873 0.0981025
-3.72354 2.48298 0.110576
-3.62151 2.61499 -0.0069465
-3.98168 0.388062 0.141859
-3.76543 0.320245 0.603448
-3.81143 0.566919 0.204361
-3.70331 0.533011 0.435156
-4.03868 0.589149 0.228897
-3.87356 0.354154 0.372653
-3.93055 0.55524 0.459691
-6.17342 0.027823 -0.593282
-6.59748 0.255766 -0.966739
-6.35964 0.547779 -0.240473
-6.21634 0.291783 -0.712318
-6.42837 0.405755 -0.899047
-6.30945 0.551761 -0.535914
-6.38545 0.141794 -0.78001
-6.26653 0.287801 -0.416878
-6.47856 0.401772 -0.603606
-5.98474 0.742767 -0.66955
-5.96122 0.590783 -0.614227
-6.122 0.649255 -0.750452
-5.93201 0.635929 -0.759057
-5.86659 0.345457 -0.129882
-5.96054 -0.099592 -0.035866
-6.02 0.18664 -0.361582
-6.11312 0.446618 -0.185177
-5.91357 0.122933 -0.082874
-6.06698 -0.0358845 -0.314574
-6.16009 0.224094 -0.13817
-1.10421 0.363269 -0.931684
-0.773878 0.737644 -0.67519
-0.520452 0.269543 -0.962988
-0.384634 0.008888 -0.353445
-0.939043 0.550457 -0.803437
-0.812329 0.316406 -0.947336
-0.74442 0.186079 -0.642564
-0.647165 0.503594 -0.819089
-0.579256 0.373266 -0.514317
-0.452543 0.139215 -0.658216
-2.85287 -3.00249 -1.21636
-3.23054 -2.92385 -1.196
-3.06719 -3.3306 -1.25351
-2.88006 -3.17233 -1.03724
-3.06889 -3.13301 -1.02706
-2.98722 -3.33639 -1.05581
-3.0417 -2.96317 -1.20618
-2.96003 -3.16654 -1.23493
-3.14886 -3.12722 -1.22475
-3.38618 -2.05134 -0.098565
-2.37808 -2.56123 -0.134541
-2.49252 -2.47812 0.422472
-2.41131 -1.89586 0.044632
-2.88213 -2.30628 -0.116553
-2.93935 -2.26473 0.161954
-2.89875 -1.9736 -0.0269665
-2.4353 -2.51967 0.143966
-2.39469 -2.22855 -0.0449545
-2.45192 -2.18699 0.233552
-1.85713 -0.413967 0.42138
-1.65927 -0.390905 0.920431
-1.2503 -0.077569 0.384148
-1.80595 -0.084043 0.474172
-1.70702 -0.072512 0.723698
-1.50254 0.084156 0.455557
-1.7582 -0.402436 0.670905
-1.55371 -0.245768 0.402764
-1.45478 -0.234237 0.652289
-2.09043 2.55218 0.167395
-2.0659 2.66009 -0.048555
-2.19298 2.68445 0.126765
-2.18072 2.73841 0.0187895
-2.07816 2.60614 0.05942
-2.21652 2.53485 0.109564
-2.20426 2.58881 0.001589
-4.01665 2.44382 0.136481
-3.97233 2.67361 0.084512
-3.92539 2.49592 0.0761905
-3.99449 2.55872 0.110496
-4.01103 2.46769 0.005291
-3.90323 2.61082 0.050206
-3.98887 2.58259 -0.0206935
-3.92754 1.80484 -0.220103
-4.28096 1.83407 -0.225431
-4.13592 1.88983 -0.461486
-4.146 2.03152 -0.278406
-4.10425 1.81945 -0.222767
-4.03173 1.84734 -0.340795
-4.03677 1.91818 -0.249254
-4.20844 1.86195 -0.343458
-4.21348 1.9328 -0.251918
-4.14096 1.96068 -0.369946
-4.04038 -5 0.949212
-3.62468 -5 1.26221
-3.84559 -4.54287 1.07336
-3.71487 -5 0.728948
-3.83253 -5 1.10571
-3.94299 -4.77144 1.01129
-3.87763 -5 0.83908
-3.73513 -4.77144 1.16779
-3.66977 -5 0.99558
-3.78023 -4.77144 0.901156
-1.37334 0.812082 -0.583544
-0.975724 0.961208 -0.275823
-1.19336 -0.166381 -0.273753
-1.17453 0.886645 -0.429683
-1.07361 0.774863 -0.629367
-1.28335 0.32285 -0.428648
-0.874801 0.849426 -0.475506
-1.08454 0.397413 -0.274788
-0.983618 0.285631 -0.474471
-3.83515 -1.82017 -0.741539
-3.34976 -1.58414 -0.592596
-3.50394 -2.07825 -1.02313
-3.59245 -1.70215 -0.667067
-3.66955 -1.94921 -0.882335
-3.61067 -1.93575 -0.420052
-3.42685 -1.83119 -0.807863
-3.36797 -1.81774 -0.345581
-3.44506 -2.06479 -0.560848
-2.72946 0.769161 0.094533
-2.75119 0.681139 -0.326037
-2.98528 1.02631 -0.281501
-3.08113 0.734324 -0.34324
-2.74032 0.72515 -0.115752
-2.85737 0.897737 -0.093484
-2.90529 0.751742 -0.124353
-2.86823 0.853726 -0.303769
-2.91616 0.707731 -0.334639
-3.03321 0.880319 -0.31237
-2.94023 -2.47675 -0.674772
-3.14499 -2.03044 -0.633684
-3.22209 -2.2775 -0.848951
-3.16321 -2.26404 -0.386669
-3.03914 -4.25341 0.579285
-2.64287 -3.80807 0.20828
-2.47531 -4.18593 0.714333
-2.97264 -3.41482 0.618231
-2.84101 -4.03074 0.393783
-2.75723 -4.21967 0.646809
-3.00589 -3.83412 0.598758
-2.55909 -3.997 0.461307
-2.80776 -3.61144 0.413255
-2.72397 -3.80037 0.666282
-2.39684 -0.595487 -0.803365
-1.98884 -0.54749 -0.836812
-2.24172 -0.466498 -0.098067
-2.21295 -0.01831 -0.514797
-2.19284 -0.571489 -0.820088
-2.31928 -0.530992 -0.450716
-2.3049 -0.306899 -0.659081
-2.11528 -0.506994 -0.46744
-2.1009 -0.2829 -0.675804
-2.22734 -0.242404 -0.306432
-3.36239 -4.55484 -1.31864
-3.11171 -4.25429 -0.873787
-2.86199 -4.55394 -1.36046
-2.79118 -5 -0.96439
-3.23705 -4.40456 -1.09621
-3.11219 -4.55439 -1.33955
-3.07678 -4.77742 -1.14151
-2.98685 -4.40411 -1.11712
-2.95144 -4.62714 -0.919088
-2.82658 -4.77697 -1.16243
-3.88203 2.65205 -0.416886
-3.48121 2.84727 -0.340672
-3.82273 3 -0.474998
-3.72541 2.76868 -0.627028
-3.68162 2.74966 -0.378779
-3.85238 2.82603 -0.445942
-3.80372 2.71037 -0.521957
-3.65197 2.92364 -0.407835
-3.60331 2.80798 -0.48385
-3.77407 2.88434 -0.551013
[...]
POINT_DATA 7451
 
FIELD FieldData 2
velocity 3 7451 double
-0.118372 -0.341657 0.00722894
1.45208e-030 3.25831e-030 -1.44352e-031
4.29931e-031 1.17659e-030 -4.15683e-032
1.20794e-030 3.21246e-030 -1.31941e-031
-0.080311 -0.195526 0.00860303
-0.0709093 -0.195853 0.00688415
-0.0770555 -0.221044 0.00940677
-1.81977e-018 -4.3609e-018 2.34757e-019
5.40743e-018 1.32443e-017 -8.28496e-019
1.85822e-029 -7.94386e-030 -4.33992e-030
8.45191e-030 2.85784e-030 -1.69302e-031
-0.394639 -0.107032 0.000458869
-0.601043 -0.138692 0.0058572
-0.674793 -0.221424 0.00485938
-0.218821 -0.0755012 0.006202
-0.295105 -0.0911052 0.00863673
-0.389677 -0.143172 0.00788591
-0.513384 -0.130959 0.00585458
-0.567479 -0.16935 0.00428047
-0.647243 -0.186151 0.00669137
9.04166e-029 -2.57843e-031 2.5669e-032
-0.81113 0.0069219 -0.000569134
-1.05136 -3.89693e-005 -0.000431763
5.23159e-029 -2.0422e-031 4.74732e-032
-0.530163 0.00306699 -3.56462e-005
-0.800805 -0.000199071 -0.00242537
-1.29385e-016 2.12296e-019 -3.1102e-019
-0.961778 0.00115118 -3.60108e-005
-0.461313 0.00602919 -0.000839192
-0.712167 0.00179955 -0.000163808
3.08523e-029 3.07835e-030 5.54397e-032
2.03429e-029 1.24671e-030 2.55771e-031
-0.67142 -0.0938684 -0.0121489
-0.845515 -0.0560683 -0.00452087
-1.0223e-016 -6.47421e-018 -1.47504e-018
-0.407275 -0.0450411 -0.00373922
-0.506166 -0.0313386 -0.00331042
-0.388836 -0.029024 -0.00711507
-0.486261 -0.0215924 -0.00485368
-0.763848 -0.0772068 -0.00747245
-4.09406e-030 -6.24775e-029 8.34964e-031
0.0272493 0.476334 0.00928481
-4.48478e-030 -7.35979e-029 1.16183e-030
-8.29451e-031 -1.01644e-029 -1.26135e-031
0.024102 0.301681 0.000600163
-6.40081e-017 -5.67067e-016 7.89253e-018
-4.13324e-018 -4.19076e-017 3.51417e-021
0.0273002 0.349087 -0.000615932
0.0232245 0.278194 0.00401359
-5.93384e-017 -6.25728e-016 2.00166e-018
-0.79503 -0.0151661 -0.00240546
-0.956319 -0.00963891 -0.00154737
-0.864313 -0.0121173 -0.00132886
-0.964948 -0.00271092 -0.000990839
-1.07835 -0.0162316 -0.00280058
-0.941166 -0.0160099 -0.00244465
-1.06289 -0.00449762 -0.00328772
-1.11448 -0.00259782 -0.000645209
-1.2073 -0.016193 -0.00158586
-0.540435 -0.171464 0.00356992
-0.548992 -0.0908552 -0.0169694
1.75681e-029 4.5662e-030 1.67591e-031
-0.597418 -0.149519 -0.00699674
-0.660294 -0.140454 -0.00352761
-0.297983 -0.100757 0.00288128
-0.609838 -0.100031 -0.0165203
-0.330174 -0.0845466 -0.00913448
-0.375903 -0.0771209 -0.0074781
-0.404497 -0.433464 -0.0124788
-0.436398 -0.249444 -0.0274694
-0.570099 -0.312798 -0.00715886
-0.22336 -0.269028 0.00190462
-0.435562 -0.363342 -0.0220637
-0.488265 -0.373853 -0.0103692
-0.367649 -0.383892 -0.00691658
-0.519489 -0.288677 -0.0172003
-0.360878 -0.300847 -0.0116646
-0.396454 -0.307181 -0.00156323
-1.56897e-029 -4.95129e-030 5.78114e-031
0.328362 0.040442 -0.001799
-1.90863e-029 -4.86662e-030 -4.32095e-031
-4.03215e-030 -1.42908e-031 -1.36325e-032
0.176773 0.0219682 -0.00238664
5.68711e-017 1.33565e-018 2.50108e-018
3.03826e-018 1.40828e-019 9.12084e-021
0.201902 0.0122772 0.000168254
0.188141 0.00755713 0.00208974
-6.57439e-017 1.12566e-019 -9.19083e-019
2.41635e-017 1.10758e-017 -5.45079e-019
2.58968e-030 1.15692e-030 -3.9645e-032
-0.48763 -0.198642 0.00634123
2.76837e-030 1.10868e-030 -4.34832e-032
1.20774e-017 5.94884e-018 -3.10511e-019
-0.276083 -0.12033 0.0050632
9.49655e-017 4.19237e-017 -2.76647e-018
-0.275973 -0.130818 0.00603232
1.47077e-016 7.41429e-017 -2.75695e-018
-0.304288 -0.127568 0.00433694
-0.0322216 -0.233511 -0.00891826
-0.0197572 -0.263037 -0.00653726
-0.0121999 -0.231081 -0.0041469
-0.0496541 -0.47789 -0.00864647
-0.0280363 -0.272389 -0.00765118
-0.0223848 -0.233359 -0.00669153
-0.0436438 -0.368239 -0.00995688
-0.0180341 -0.274327 -0.00653618
-0.0367707 -0.400332 -0.00792605
-0.0306711 -0.371042 -0.00674573
0.01211 0.321642 0.0125147
-6.65226e-031 -2.30681e-029 -1.27059e-030
-3.33183e-031 -1.75771e-029 -1.04768e-030
-0.00178508 0.257554 0.0156817
0.00680986 0.163241 0.00946547
0.00582997 0.160162 0.00950101
0.00481959 0.322871 0.0157123
2.1592e-029 2.90905e-030 6.27724e-029
0.00203796 0.148472 0.0103837
0.000910407 0.127328 0.00917855
9.29774e-031 3.49187e-030 -7.49366e-032
-0.0894564 -0.382765 0.00332375
-0.0475949 -0.227847 0.00345384
-0.0578361 -0.237838 0.00499237
-0.0594472 -0.193941 0.00439974
-0.0274285 -0.117674 0.00240249
-0.107837 -0.37428 0.00445212
-0.074947 -0.332923 0.00434362
-0.0802378 -0.28379 0.005576
-2.74937e-031 -5.17102e-030 -2.73112e-031
-3.85028e-018 -7.46451e-017 -5.44139e-018
3.79055e-018 6.67804e-017 4.75855e-018
0.00824193 0.156082 0.00808623
9.65548e-030 1.63377e-031 8.99767e-033
1.27893e-029 2.08192e-031 2.11192e-032
1.6677e-029 1.78646e-031 4.80867e-032
6.73613e-017 1.4789e-018 1.20257e-019
-0.501441 -0.0122326 -0.000823156
-4.57108e-030 -4.39375e-029 -2.22e-029
-0.49233 -0.00615618 -0.000843892
-1.75881e-017 -1.77737e-019 1.88426e-019
-0.500579 -0.00556917 -0.0011698
-1.38586e-028 3.6293e-031 -5.92224e-032
0.457784 0.000386427 0.000635195
-5.13328e-029 5.03059e-032 -1.184e-031
0.446042 -0.00197201 0.00120684
0.394486 -0.00134761 0.000282081
-6.35972e-017 7.12864e-020 -2.77839e-019
0.356787 -0.000340741 0.00122371
0.373887 0.000511023 0.000846821
0.504457 -0.00105356 0.0014955
0.377111 -0.00121791 0.00161158
-0.076435 -0.305043 -0.0180534
-0.11039 -0.297121 -0.0230465
-0.162335 -0.528739 -0.0158477
-0.0837084 -0.347171 -0.0137127
-0.100679 -0.325418 -0.0220623
-0.127635 -0.460289 -0.0207214
-0.0878212 -0.354138 -0.0184766
-0.167082 -0.478189 -0.0228559
-0.100205 -0.328612 -0.0186181
-0.141804 -0.503985 -0.0185934
2.92464e-030 3.7961e-031 -6.3203e-032
-0.64205 -0.115384 0.0086883
6.32302e-030 4.95977e-031 -1.08478e-031
2.79596e-029 1.81338e-030 -1.3903e-031
-0.363593 -0.0471629 0.00974026
-9.49214e-017 -7.50478e-018 3.32475e-018
1.31977e-016 6.12274e-018 -3.89393e-018
-0.351779 -0.0417074 0.00841647
-0.366913 -0.029526 0.00668551
-2.15364e-017 -7.28577e-019 7.67085e-019
-0.386943 -0.100426 -0.0135491
-0.654054 -0.221602 -0.00961304
-0.696423 -0.10821 -0.00548495
-0.392219 -0.115929 -0.00512259
-0.541482 -0.163287 -0.0125235
-0.557745 -0.114786 -0.010245
-0.393907 -0.112366 -0.00912848
-0.708818 -0.16581 -0.010007
-0.552902 -0.17538 -0.00612935
-0.568069 -0.123981 -0.00578086
-0.602317 -0.0140379 0.00118801
3.14614e-030 4.13691e-032 -3.4159e-033
2.79144e-029 3.71609e-031 -1.28746e-031
1.28736e-029 1.90662e-031 -2.15333e-032
-0.326071 -0.00367751 0.000930533
-0.323539 -0.00648666 0.0025307
-0.352856 -0.00457914 0.00175614
-2.32115e-016 -2.09512e-018 1.90996e-018
-1.67763e-016 -3.66366e-019 9.29333e-019
-1.03463e-029 -2.08586e-029 4.68018e-029
-0.0561619 -0.380959 0.00411428
-0.0540126 -0.313212 0.00405556
-0.083288 -0.358845 0.00500596
-0.0772178 -0.411693 0.00332768
-0.700168 -0.141161 -0.0270261
-0.38524 -0.0451928 -0.00912304
-0.567936 -0.191694 -0.0289794
-0.434819 -0.139373 -0.020597
-0.65434 -0.245123 -0.0182345
-0.5797 -0.0933469 -0.0197378
-0.514335 -0.195532 -0.0105105
-0.776848 -0.0110454 0.00049397
-3.53951e-017 3.2107e-020 7.46715e-020
-0.778132 -0.0095198 0.00264547
-0.488135 -0.00771339 0.00273091
-2.33122e-029 -2.98005e-029 5.87385e-029
-0.488731 -0.00605098 0.00410444
-0.443631 -0.00807062 0.00162975
-0.901018 -0.013307 0.00253306
-0.568021 -0.0032343 0.00273027
5.08312e-030 9.60345e-032 3.62104e-034
-0.330596 -0.00670924 0.00154245
-7.48826e-017 -1.31041e-018 1.54505e-018
-9.89376e-017 -9.37247e-019 5.22916e-019
-1.06226 -0.0495214 0.00151021
-1.18522 -0.0398481 -0.00269262
-1.01171 -0.0269197 0.000158134
-0.935964 -0.0223147 0.00229992
-1.18487 -0.0486257 -0.000259647
-1.08489 -0.0265386 -0.00129111
-1.13044 -0.0270035 0.000859677
1.9017e-017 -1.71582e-019 -3.04067e-019
-4.54075e-029 3.35425e-031 4.32892e-031
-1.68904e-029 3.88605e-032 9.08869e-032
0.449821 -0.00357878 -0.000902932
-2.92221e-017 2.94279e-019 4.19956e-019
1.25769e-029 -3.15618e-029 9.5442e-029
0.277595 -0.0025153 -0.00284644
-3.01891e-017 8.54945e-020 3.12741e-019
0.310316 -0.00310565 -0.00231319
0.280657 0.000279586 -0.00193046
8.33071e-032 -7.69471e-030 -6.16655e-031
-3.15887e-031 -2.42833e-029 -1.56233e-030
-4.77071e-033 -2.81701e-030 -2.12491e-031
-0.00134148 0.128463 0.00966576
0.00212026 0.136161 0.010965
1.27668e-005 0.12412 0.00882303
-7.42215e-019 -6.03281e-017 -7.1027e-018
-9.68503e-020 2.74905e-017 2.36432e-018
-1.34362e-018 -5.83997e-017 2.65281e-018
0.0215303 0.74955 0.00384388
-0.0257921 0.5484 0.00617481
-0.0258509 0.637609 -0.0233684
-0.0275581 0.667998 -0.00749276
-0.00743172 0.79504 0.00755018
-0.00386835 0.869796 -0.0111244
-0.0068592 0.877543 -0.00161364
-0.0273019 0.647685 -0.0060189
-0.0268219 0.609075 0.00153109
-0.02808 0.677945 -0.0167596
0.351414 0.141946 0.0194843
-2.48106e-029 -1.28994e-030 -1.22683e-031
0.432384 0.0111119 -0.00251007
0.387098 0.0885179 0.00200332
0.235488 0.0047982 -0.000383985
0.399846 0.0258848 -0.000104001
0.190382 0.00388184 0.00689808
0.393729 0.0432165 -0.00275769
0.258113 0.00015655 -0.00312832
-1.97842e-018 -2.60754e-017 -6.60323e-019
1.05715e-031 1.21558e-030 4.10696e-032
-0.00750498 -0.116487 -0.00252364
-0.00803166 -0.114261 -0.00253407
-4.19072e-018 -5.11624e-017 -1.32528e-018
-0.0161515 -0.12606 -0.00480292
-0.014983 -0.121337 -0.00572424
-7.23132e-018 -2.90625e-017 8.13741e-019
2.69981e-031 1.711e-030 -2.63136e-032
-0.0304686 -0.130355 0.00304301
1.22217e-017 6.46205e-017 -9.98642e-019
1.9964e-029 -6.55522e-030 -1.27967e-031
-0.0208496 -0.129081 0.000932646
2.17432e-017 1.17978e-016 -1.42838e-018
-0.178953 -0.295838 0.00626914
1.40322e-030 1.98625e-030 -8.84385e-032
6.69106e-031 1.09332e-030 -4.44827e-032
5.01785e-031 8.86662e-031 -3.67937e-032
-0.110538 -0.169112 0.0076258
-0.101656 -0.165353 0.00688815
-0.0986796 -0.1702 0.00687596
-5.08705e-017 -7.73299e-017 4.71714e-018
-3.19053e-016 -5.09972e-016 3.02883e-017
-1.96925e-016 -3.33305e-016 1.88819e-017
-1.09295e-031 -3.01556e-030 1.05353e-031
-1.55433e-031 -8.06405e-030 3.40652e-031
-5.19952e-031 -1.4627e-029 6.95497e-031
0.00872041 0.326742 -0.00851443
-2.92634e-018 -1.13245e-016 4.91961e-018
-4.93015e-019 -1.33255e-017 6.28101e-019
0.0056214 0.186247 -0.00572277
7.29824e-019 2.40746e-017 -1.29552e-018
0.00487177 0.214462 -0.00884488
0.00762464 0.217296 -0.00985499
-5.23984e-029 -3.54966e-031 1.02389e-030
-5.49786e-029 1.98027e-031 5.34995e-031
0.452722 -0.0071842 -0.000414821
2.40863e-017 8.56634e-020 -5.47209e-019
-2.6254e-017 1.18877e-019 5.51407e-019
0.364791 -0.00138759 -0.00731748
-5.97585e-017 4.2997e-019 5.78684e-019
0.398897 -0.000293498 -0.00509727
0.352273 -0.00442638 -0.00319604
6.30324e-020 9.87845e-019 5.41957e-020
0.00741436 0.436096 0.0209456
-2.19363e-030 -6.49687e-029 -2.77884e-030
0.00863367 0.237042 0.0130336
-4.63077e-018 -7.14883e-017 -1.11797e-017
0.0204251 0.423133 0.0138946
0.00804901 0.201979 0.0142186
0.0149435 0.633249 0.0164997
0.0163291 0.41974 0.0187652
0.0222593 -0.0579284 -0.0302666
0.0199451 -0.00557718 -0.023352
-0.122182 -0.210419 -0.0253018
-0.127254 -0.0965311 -0.0348577
0.0195768 -0.0409169 -0.029568
-0.0567714 -0.157608 -0.0308761
-0.0569551 -0.0985761 -0.0364849
-0.0415038 -0.091894 -0.0233547
-0.0470067 -0.0490994 -0.0294971
-0.11875 -0.157481 -0.0306064
-0.00193378 0.410574 0.0216893
0.00717416 0.454643 0.022148
0.00734398 0.24471 0.0155172
0.00905711 0.641237 0.018958
0.000677996 0.568938 -0.0179942
-0.0154875 0.638021 -0.00693146
-0.0151924 0.432272 -0.0203081
-0.000830524 0.615339 -0.0277086
-0.00766949 0.644274 -0.0129508
-0.0087095 0.540185 -0.020683
0.00033111 0.592839 -0.0236024
-0.0173354 0.567344 -0.0147752
-0.00963557 0.668015 -0.0157099
-0.0113466 0.54745 -0.024955
1.7517e-017 5.51568e-017 3.73571e-018
5.46159e-017 1.40417e-018 5.99553e-021
0.38338 0.447698 -0.0166341
0.287746 0.116313 -0.0216657
1.30674e-029 3.69058e-029 4.12757e-029
0.257213 0.307659 -0.0131372
0.19403 0.116758 -0.0169431
0.288961 0.174142 -0.0170441
0.222725 0.060184 -0.0121824
0.366982 0.264119 -0.0235113
9.14628e-019 2.16568e-017 1.66851e-018
0.00227076 0.244781 0.011033
2.00332e-031 -1.51526e-029 -6.22439e-031
-0.00183359 0.183874 0.00442396
0.00262725 0.109962 0.00651542
1.61016e-018 3.17866e-017 4.03291e-018
0.000668358 0.0992734 0.00394972
6.64732e-005 0.109419 0.00597736
-0.000664742 0.219468 0.006865
-0.00111743 0.0865343 0.00336121
6.21132e-031 3.4536e-030 -6.36576e-032
-0.0415636 -0.338808 0.0025125
5.90542e-031 1.11588e-029 -1.23413e-031
9.91453e-031 5.06491e-030 -8.58246e-032
-0.0282537 -0.198359 0.00355634
-2.92411e-017 -2.53201e-016 5.43398e-018
2.21935e-029 -4.92253e-030 1.54762e-029
-0.0181854 -0.193213 0.00246788
-0.0263635 -0.184213 0.00176983
-2.35919e-017 -2.06488e-016 2.95948e-018
0.485121 -0.000285364 -0.000112351
-1.92285e-029 2.24788e-032 -5.96473e-033
-1.99856e-029 1.58673e-032 4.64998e-033
-3.40088e-029 4.81486e-032 5.75984e-033
0.33075 0.000161717 -4.49383e-005
0.332182 -0.000157561 -0.000229708
0.330189 -0.000242693 3.46674e-005
-1.86683e-016 -6.52092e-020 9.70204e-020
1.22368e-029 -1.08765e-020 -1.72226e-029
2.4348e-017 -1.49386e-020 -8.05381e-021
0.186424 0.685877 -0.0339758
-0.0141987 0.829333 -0.0130193
-0.0189142 0.810367 -0.0631536
0.0340237 0.737759 0.0038509
0.0844185 0.86851 -0.0334215
0.0613962 0.786285 -0.0543024
0.129328 0.811229 -0.0270675
-0.0206194 0.931554 -0.0427955
0.0486372 0.843291 -0.00634235
0.0391736 0.930893 -0.0374446
-7.17782e-029 9.27411e-032 3.81388e-032
-4.24056e-029 9.02378e-032 1.12165e-031
-5.25345e-029 3.86503e-031 -1.02592e-032
0.446511 -0.0036284 -0.000189508
3.74401e-019 9.37095e-020 -7.73202e-022
3.6667e-019 -1.34939e-020 -7.51439e-022
0.354725 3.96596e-005 -0.00140038
8.67808e-019 -2.84894e-023 3.41049e-030
0.3177 0.000378861 -0.00122253
0.360565 -0.002208 0.000297272
7.83563e-030 4.52239e-030 -1.91204e-031
-0.375399 -0.223307 0.00970608
2.6729e-030 1.5637e-030 -8.27445e-032
-0.257229 -0.163085 0.00792001
-0.250437 -0.132776 0.00622949
5.5205e-016 3.68939e-016 -2.30923e-017
-0.431832 -0.214367 0.00777264
-0.227631 -0.147163 0.00936326
-0.240588 -0.13071 0.0062948
-0.803548 0.000542218 0.00565257
1.70886e-028 -1.79722e-031 -2.42959e-031
1.27628e-029 -7.6339e-032 -1.58047e-031
-0.802278 0.00466882 0.00271885
-0.533497 0.00225053 0.00255643
-0.481488 -0.000633002 0.00604534
-0.887235 0.00358744 0.00328699
-2.20784e-029 3.25814e-029 6.06503e-029
-0.453863 0.00390967 0.00167416
-0.485445 0.00595618 0.00330416
-3.44471e-029 3.66236e-031 2.74597e-031
-1.26737e-029 2.11872e-031 1.65677e-031
-1.96529e-029 -7.09816e-031 1.44488e-031
-4.40824e-017 1.83827e-018 4.23072e-019
-1.14493e-018 1.85505e-020 4.10386e-020
0.285195 -0.00287627 -0.00218364
-1.5745e-017 3.97821e-019 6.05884e-019
0.263802 -0.00544597 -0.00226542
0.274124 0.00287282 -0.0113703
-7.49784e-029 1.07558e-030 -1.53427e-031
0.362479 -0.00554544 -0.000102961
0.303733 -0.00779599 0.00130584
0.328611 -0.00605832 0.000599285
0.50055 -0.00647918 -0.000529743
0.516439 -0.00454187 -0.000284425
0.455616 -0.00796511 -0.000778002
-1.64784e-029 -7.24548e-032 3.21318e-033
-3.09377e-029 4.39552e-031 -1.33985e-032
5.18578e-017 -2.41634e-018 -2.80484e-019
4.51604e-017 -2.55217e-018 -4.14556e-019
0.266666 -0.00364193 -0.000689443
4.0602e-018 -1.93563e-019 -4.76374e-020
0.274004 -0.00433044 -0.00276303
-5.75113e-029 1.7793e-031 2.2429e-031
0.446006 0.00162566 -0.000620146
-3.83124e-029 1.04665e-031 9.86704e-032
0.27588 -0.00129931 -0.00072695
-9.33565e-017 6.31246e-020 6.57194e-019
0.35245 -0.00241649 -0.0017416
0.287063 8.00644e-005 -0.00074644
0.467434 -0.00107555 -0.000725528
0.303016 0.000895529 -0.00212261
-1.54419e-029 1.1464e-031 -1.26987e-031
-4.53892e-029 1.31944e-032 -3.01529e-031
-5.2863e-029 2.98608e-031 -2.55586e-031
3.20601e-017 -5.09042e-019 8.11878e-019
-3.45063e-017 5.91871e-019 -7.72493e-019
0.278947 -0.0036462 0.0055714
-2.25253e-017 3.23011e-019 -3.76293e-019
0.289937 -0.00283133 0.00379052
0.28983 -0.0032704 0.00277247
1.39689e-030 -8.29114e-030 3.47204e-031
-0.175384 0.122093 -0.0185165
1.86924e-030 -3.84802e-030 4.58385e-031
0.0705416 0.233929 -0.0219295
-0.0592463 0.0870084 -0.00503492
-1.37788e-017 6.95137e-018 8.18043e-020
0.00721453 0.142107 -0.00579576
-0.0666536 0.0443118 -0.00453478
-0.0680651 0.192166 -0.0182598
-0.00478717 0.0803563 -0.00658233
-6.28985e-030 -3.14674e-030 -6.47813e-031
-5.02391e-029 -6.9028e-030 -5.0871e-031
-8.45841e-030 -1.75133e-029 2.67848e-031
0.200186 0.0380675 0.0297891
0.236468 0.0791302 0.0158384
0.247418 0.179803 0.0429701
2.68172e-030 5.10318e-029 -3.17199e-029
5.41501e-017 4.79275e-017 1.044e-017
-6.79479e-017 -4.14417e-017 -1.08182e-017
-2.01293e-029 -2.05824e-032 -2.25671e-032
1.37731e-029 4.16565e-019 -6.73846e-029
5.96227e-017 -1.67464e-018 2.37663e-021
0.294547 -0.0019047 0.00152473
-0.0933599 -0.274663 0.00265446
1.56854e-030 3.25861e-030 -4.61139e-032
-0.149553 -0.269202 -0.00407401
3.48542e-030 8.04821e-030 4.06594e-032
-0.06012 -0.140584 0.0034438
-0.125561 -0.28079 -0.000724093
-0.0604337 -0.148459 0.00218316
-0.0833354 -0.154443 0.00142114
9.96517e-018 1.9744e-017 -3.94163e-019
-0.0727555 -0.141266 -0.000241834
-0.274573 -0.325308 -0.0240708
-0.254054 -0.480233 -0.0210663
-0.115579 -0.187187 -0.0129352
-0.210749 -0.282196 -0.0287013
-0.272723 -0.415469 -0.0230912
-0.190165 -0.2762 -0.0201303
-0.213713 -0.368433 -0.0282718
-0.128784 -0.209143 -0.0169135
-0.204003 -0.368234 -0.0218826
0.444432 0.00141615 0.00010638
-9.03239e-029 -2.32014e-031 3.14693e-031
-3.71601e-029 -1.69384e-031 4.5492e-032
0.456414 0.0019108 -0.000684155
0.292337 0.00220865 -0.000756962
0.276731 0.00226934 0.0006274
0.463271 0.00238249 -0.000922782
3.95763e-029 -8.22786e-030 -1.03239e-028
0.381618 -0.00139216 -0.00145995
0.336458 -0.00036449 -0.000286252
-1.6307e-029 1.95275e-032 1.54262e-032
-4.30777e-029 1.39806e-032 -1.14677e-032
-8.02682e-029 2.29444e-032 3.73879e-032
1.24215e-029 4.66101e-029 8.21435e-029
0.281047 -0.000353184 -0.000252017
6.14254e-017 2.6321e-019 -2.51839e-020
0.307588 0.000655527 0.000494001
-2.89313e-017 -8.8832e-020 1.70119e-020
0.280754 7.38167e-006 -0.000337571
-2.4337e-029 3.9972e-032 -2.36226e-032
-4.71377e-029 4.21334e-032 -9.78404e-032
0.481569 -0.000511994 0.000181254
-8.13366e-029 1.12154e-031 -1.91247e-031
8.00568e-017 -1.68082e-019 3.72277e-019
0.367663 -0.000737729 0.000648594
-6.31801e-017 3.30011e-019 -1.52331e-019
0.377536 -0.000577303 0.00178764
2.99345e-017 5.68385e-020 1.95545e-019
0.358282 -0.00205242 0.000611785
0.44333 0.00118178 -0.000615932
-9.00976e-029 1.5596e-032 9.62553e-032
0.508534 0.000205953 -4.21726e-005
0.327542 0.000312915 -0.000448185
0.446607 0.00194211 0.000411593
0.357522 -0.00134203 0.00103815
0.514192 0.00186388 -0.000847209
0.363967 0.000830435 -0.000318738
1.21607e-029 1.2741e-031 -8.31415e-032
-0.334876 -0.00545921 0.00425418
8.12739e-017 9.3498e-019 -5.0787e-018
-0.445509 -0.00498063 0.00429636
-0.723001 -0.0111531 0.00363683
1.06686e-030 -4.26029e-029 2.41684e-030
1.34114e-031 -7.79254e-029 4.31335e-030
-0.00832743 0.485943 -0.0273371
-3.60849e-005 0.48299 -0.027894
-0.010412 0.336371 -0.0204784
1.14394e-018 -6.15521e-017 4.05831e-018
-0.00669819 0.391681 -0.0234278
0.000678952 0.595466 0.00495038
0.0129991 0.334854 0.00649415
0.00445552 0.573024 -0.00139858
0.000253412 0.443384 0.00486353
0.00994529 0.504485 0.00715078
0.00377838 0.587859 0.00121712
0.000497866 0.527546 0.00585452
0.00888708 0.486683 0.00299379
0.00580881 0.421088 0.00587268
0.00232319 0.537829 0.00277214
0.00797679 0.323362 0.0103758
0.0019902 0.458846 0.0115133
0.00105696 0.3532 0.00754002
7.94044e-029 1.45646e-030 5.0932e-031
1.33137e-028 2.74609e-030 7.44935e-031
2.38923e-029 2.86372e-031 9.16675e-032
-0.604751 -0.00781912 -0.00279121
-0.570366 -0.0090999 -0.00493948
-0.570491 -0.00982574 -0.00288455
-1.30753e-016 2.26175e-019 -1.4829e-018
-1.54783e-016 -2.84781e-018 -1.08848e-018
-1.47148e-016 -3.1322e-018 -1.56549e-018
6.48832e-031 2.31726e-030 -5.31976e-032
-0.149614 -0.415864 -0.000590097
3.63144e-030 1.68348e-029 2.78553e-032
1.3604e-030 6.26475e-030 -1.16298e-031
-0.0856094 -0.304315 0.00603518
4.42854e-030 -3.78529e-030 -2.64778e-029
-3.81645e-017 -1.78287e-016 5.98508e-018