# vtk DataFile Version 2.0 
output.vtk, Created by Freefem++, via gregorio
ASCII
DATASET UNSTRUCTURED_GRID
POINTS 7451 double
-3.79965 2.23652 0.040848
-4.13429 2.05574 0.276253
-4.09122 2.24524 0.070091
-4.01836 2.27766 0.330071
-3.96697 2.14613 0.158551
-3.94543 2.24088 0.0554695
-3.90901 2.25709 0.185459
-4.11275 2.15049 0.173172
-4.07633 2.1667 0.303162
-4.05479 2.26145 0.200081
-4.81817 0.732763 -0.840268
-4.76136 0.37264 -0.736193
-5.12328 0.495929 -0.550642
-4.73872 0.559667 -0.434419
-4.78977 0.552702 -0.788231
-4.97072 0.614346 -0.695455
-4.77845 0.646215 -0.637344
-4.94232 0.434285 -0.643417
-4.75004 0.466153 -0.585306
-4.931 0.527798 -0.49253
-7.58244 -0.891248 -0.453516
-8 -0.559587 0.124298
-7.26059 -0.264226 0.250847
-7.58828 -0.999993 0.00381
-7.79122 -0.725418 -0.164609
-7.42152 -0.577737 -0.101334
-7.58536 -0.94562 -0.224853
-7.6303 -0.411906 0.187573
-7.79414 -0.77979 0.064054
-7.42444 -0.632109 0.127328
-5.46564 0.048234 0.998836
-5.51396 -0.351144 0.936321
-5.02851 -0.125769 0.598961
-5.56665 -0.148801 0.504295
-5.4898 -0.151455 0.967578
-5.24708 -0.0387675 0.798898
-5.51614 -0.0502835 0.751565
-5.27124 -0.238457 0.767641
-5.5403 -0.249972 0.720308
-5.29758 -0.137285 0.551628
-4.20269 -2.80441 0.102764
-3.63085 -2.57461 -0.287529
-4.13183 -2.29387 0.255347
-4.14432 -2.47254 -0.273935
-3.91677 -2.68951 -0.0923825
-4.16726 -2.54914 0.179055
-4.1735 -2.63848 -0.0855855
-3.88134 -2.43424 -0.016091
-3.88759 -2.52358 -0.280732
-4.13807 -2.38321 -0.009294
-6.25062 -0.085247 0.575431
-6.51584 -0.423084 -0.15939
-6.46019 0.447486 0.293263
-6.75561 -0.174737 0.413139
-6.38323 -0.254165 0.20802
-6.35541 0.181119 0.434347
-6.88822 -0.343655 0.0457285
-6.86039 0.09163 0.272055
-6.48801 0.012201 0.0669365
-4.88162 0.371746 0.655425
-4.51246 -0.112716 0.623981
-4.65723 0.09269 0.995695
-4.69704 0.129515 0.639703
-4.95507 0.122989 0.627193
-4.76942 0.232218 0.82556
-4.77049 -0.119243 0.611471
-4.58484 -0.010013 0.809838
-4.84287 -0.0165395 0.797328
-3.75099 1.20677 0.090288
-3.64118 0.745776 0.266863
-4.09568 0.790235 0.315934
-3.78936 1.07086 0.69071
-3.69609 0.976272 0.178575
-3.92333 0.998502 0.203111
-3.77017 1.13882 0.390499
-3.86843 0.768006 0.291399
-3.71527 0.908319 0.478787
-3.94252 0.930549 0.503322
-2.18572 0.40145 0.915881
-1.75478 0.245881 0.526965
-1.94554 -0.013967 0.999902
-1.76886 0.356252 0.93439
-1.97025 0.323665 0.721423
-2.06563 0.193741 0.957891
-1.97729 0.378851 0.925135
-1.85016 0.115957 0.763433
-1.76182 0.301067 0.730678
-1.8572 0.171143 0.967146
-5.06116 0.824959 0.710182
-4.88551 0.773989 0.80113
-4.92155 0.772883 0.437198
-5.01596 0.602336 0.857802
-4.97333 0.799474 0.755656
-4.99135 0.798921 0.57369
-5.03856 0.713647 0.783992
-4.90353 0.773436 0.619164
-4.95074 0.688163 0.829466
-4.96876 0.687609 0.6475
-2.34262 2.51752 0.051733
-2.4672 2.85727 -0.311185
-2.29554 2.81673 0.086134
-2.65762 2.74748 0.16058
-2.40491 2.6874 -0.129726
-2.31908 2.66712 0.0689335
-2.50012 2.6325 0.106157
-2.38137 2.837 -0.112526
-2.56241 2.80238 -0.0753025
-2.47658 2.7821 0.123357
-3.50303 -3.76846 -0.636668
-3.49422 -3.29308 -1.15018
-3.31427 -3.71149 -1.25136
-2.90724 -3.34218 -0.858121
-3.49863 -3.53077 -0.893424
-3.40865 -3.73997 -0.944014
-3.20514 -3.55532 -0.747394
-3.40425 -3.50228 -1.20077
-3.20073 -3.31763 -1.00415
-3.11076 -3.52683 -1.05474
-4.0054 2.49156 -0.125899
-3.5956 2.50054 -0.194198
-3.83412 2.54803 0.0159
-3.8005 2.49605 -0.160049
-3.90253 2.36404 -0.0425255
-3.91976 2.5198 -0.0549995
-3.69763 2.36853 -0.076675
-3.71486 2.52428 -0.089149
-3.81689 2.39228 0.028374
-3.73452 -3.68531 -1.05781
-3.52439 -3.6984 -1.15459
-3.61437 -3.4892 -1.104
-3.61877 -3.72688 -0.84724
-6.37864 0.944563 0.328331
-6.25891 0.813305 0.581838
-6.65332 0.772267 0.635298
-6.31878 0.878934 0.455085
-6.41941 0.696025 0.310797
-6.51598 0.858415 0.481815
-6.35955 0.630395 0.43755
-6.45612 0.792786 0.608568
-6.55675 0.609877 0.46428
1.62066 -0.841518 -0.540229
1.89324 0.238579 -0.195511
2.01627 -0.690819 -0.723027
2.25185 -0.211859 0.261412
1.75695 -0.30147 -0.36787
1.81846 -0.766169 -0.631628
1.93625 -0.526689 -0.139408
1.95475 -0.22612 -0.459269
2.07254 0.01336 0.0329505
2.13406 -0.451339 -0.230807
-2.56949 2.06853 0.305158
-2.91403 1.60744 0.564909
-3.02709 2.08175 0.021586
-2.87501 2.07662 0.630995
-2.74176 1.83799 0.435033
-2.79829 2.07514 0.163372
-2.72225 2.07258 0.468077
-2.97056 1.8446 0.293247
-2.89452 1.84203 0.597952
-2.95105 2.07919 0.32629
-5.39985 0.358755 0.933432
-5.34934 0.453264 0.543553
-5.56264 0.558471 0.829524
-5.70805 0.297641 0.954678
-5.37459 0.40601 0.738492
-5.48124 0.458613 0.881478
-5.55395 0.328198 0.944055
-5.45599 0.505868 0.686538
-5.52869 0.375452 0.749116
-5.63535 0.428056 0.892101
-4.17913 0.323834 -0.696515
-4.36183 0.516245 -0.417662
-4.60784 0.019305 -0.528365
-4.46586 0.364911 -0.72315
-4.27048 0.42004 -0.557088
-4.39349 0.17157 -0.61244
-4.3225 0.344372 -0.709832
-4.48483 0.267775 -0.473013
-4.41384 0.440578 -0.570406
-4.53685 0.192108 -0.625757
-5.9377 0.438799 -0.558905
-5.87927 0.529091 -0.848565
-6.25926 0.555743 -0.831354
-6.07929 0.245277 -0.969453
-5.90849 0.483945 -0.703735
-6.09848 0.497271 -0.695129
-6.00849 0.342038 -0.764179
-6.06927 0.542417 -0.839959
-5.97928 0.387184 -0.909009
-6.16928 0.40051 -0.900404
-3.64743 2.72944 0.180305
-3.74077 2.63873 0.0981025
-3.72354 2.48298 0.110576
-3.62151 2.61499 -0.0069465
-3.98168 0.388062 0.141859
-3.76543 0.320245 0.603448
-3.81143 0.566919 0.204361
-3.70331 0.533011 0.435156
-4.03868 0.589149 0.228897
-3.87356 0.354154 0.372653
-3.93055 0.55524 0.459691
-6.17342 0.027823 -0.593282
-6.59748 0.255766 -0.966739
-6.35964 0.547779 -0.240473
-6.21634 0.291783 -0.712318
-6.42837 0.405755 -0.899047
-6.30945 0.551761 -0.535914
-6.38545 0.141794 -0.78001
-6.26653 0.287801 -0.416878
-6.47856 0.401772 -0.603606
-5.98474 0.742767 -0.66955
-5.96122 0.590783 -0.614227
-6.122 0.649255 -0.750452
-5.93201 0.635929 -0.759057
-5.86659 0.345457 -0.129882
-5.96054 -0.099592 -0.035866
-6.02 0.18664 -0.361582
-6.11312 0.446618 -0.185177
-5.91357 0.122933 -0.082874
-6.06698 -0.0358845 -0.314574
-6.16009 0.224094 -0.13817
-1.10421 0.363269 -0.931684
-0.773878 0.737644 -0.67519
-0.520452 0.269543 -0.962988
-0.384634 0.008888 -0.353445
-0.939043 0.550457 -0.803437
-0.812329 0.316406 -0.947336
-0.74442 0.186079 -0.642564
-0.647165 0.503594 -0.819089
-0.579256 0.373266 -0.514317
-0.452543 0.139215 -0.658216
-2.85287 -3.00249 -1.21636
-3.23054 -2.92385 -1.196
-3.06719 -3.3306 -1.25351
-2.88006 -3.17233 -1.03724
-3.06889 -3.13301 -1.02706
-2.98722 -3.33639 -1.05581
-3.0417 -2.96317 -1.20618
-2.96003 -3.16654 -1.23493
-3.14886 -3.12722 -1.22475
-3.38618 -2.05134 -0.098565
-2.37808 -2.56123 -0.134541
-2.49252 -2.47812 0.422472
-2.41131 -1.89586 0.044632
-2.88213 -2.30628 -0.116553
-2.93935 -2.26473 0.161954
-2.89875 -1.9736 -0.0269665
-2.4353 -2.51967 0.143966
-2.39469 -2.22855 -0.0449545
-2.45192 -2.18699 0.233552
-1.85713 -0.413967 0.42138
-1.65927 -0.390905 0.920431
-1.2503 -0.077569 0.384148
-1.80595 -0.084043 0.474172
-1.70702 -0.072512 0.723698
-1.50254 0.084156 0.455557
-1.7582 -0.402436 0.670905
-1.55371 -0.245768 0.402764
-1.45478 -0.234237 0.652289
-2.09043 2.55218 0.167395
-2.0659 2.66009 -0.048555
-2.19298 2.68445 0.126765
-2.18072 2.73841 0.0187895
-2.07816 2.60614 0.05942
-2.21652 2.53485 0.109564
-2.20426 2.58881 0.001589
-4.01665 2.44382 0.136481
-3.97233 2.67361 0.084512
-3.92539 2.49592 0.0761905
-3.99449 2.55872 0.110496
-4.01103 2.46769 0.005291
-3.90323 2.61082 0.050206
-3.98887 2.58259 -0.0206935
-3.92754 1.80484 -0.220103
-4.28096 1.83407 -0.225431
-4.13592 1.88983 -0.461486
-4.146 2.03152 -0.278406
-4.10425 1.81945 -0.222767
-4.03173 1.84734 -0.340795
-4.03677 1.91818 -0.249254
-4.20844 1.86195 -0.343458
-4.21348 1.9328 -0.251918
-4.14096 1.96068 -0.369946
-4.04038 -5 0.949212
-3.62468 -5 1.26221
-3.84559 -4.54287 1.07336
-3.71487 -5 0.728948
-3.83253 -5 1.10571
-3.94299 -4.77144 1.01129
-3.87763 -5 0.83908
-3.73513 -4.77144 1.16779
-3.66977 -5 0.99558
-3.78023 -4.77144 0.901156
-1.37334 0.812082 -0.583544
-0.975724 0.961208 -0.275823
-1.19336 -0.166381 -0.273753
-1.17453 0.886645 -0.429683
-1.07361 0.774863 -0.629367
-1.28335 0.32285 -0.428648
-0.874801 0.849426 -0.475506
-1.08454 0.397413 -0.274788
-0.983618 0.285631 -0.474471
-3.83515 -1.82017 -0.741539
-3.34976 -1.58414 -0.592596
-3.50394 -2.07825 -1.02313
-3.59245 -1.70215 -0.667067
-3.66955 -1.94921 -0.882335
-3.61067 -1.93575 -0.420052
-3.42685 -1.83119 -0.807863
-3.36797 -1.81774 -0.345581
-3.44506 -2.06479 -0.560848
-2.72946 0.769161 0.094533
-2.75119 0.681139 -0.326037
-2.98528 1.02631 -0.281501
-3.08113 0.734324 -0.34324
-2.74032 0.72515 -0.115752
-2.85737 0.897737 -0.093484
-2.90529 0.751742 -0.124353
-2.86823 0.853726 -0.303769
-2.91616 0.707731 -0.334639
-3.03321 0.880319 -0.31237
-2.94023 -2.47675 -0.674772
-3.14499 -2.03044 -0.633684
-3.22209 -2.2775 -0.848951
-3.16321 -2.26404 -0.386669
-3.03914 -4.25341 0.579285
-2.64287 -3.80807 0.20828
-2.47531 -4.18593 0.714333
-2.97264 -3.41482 0.618231
-2.84101 -4.03074 0.393783
-2.75723 -4.21967 0.646809
-3.00589 -3.83412 0.598758
-2.55909 -3.997 0.461307
-2.80776 -3.61144 0.413255
-2.72397 -3.80037 0.666282
-2.39684 -0.595487 -0.803365
-1.98884 -0.54749 -0.836812
-2.24172 -0.466498 -0.098067
-2.21295 -0.01831 -0.514797
-2.19284 -0.571489 -0.820088
-2.31928 -0.530992 -0.450716
-2.3049 -0.306899 -0.659081
-2.11528 -0.506994 -0.46744
-2.1009 -0.2829 -0.675804
-2.22734 -0.242404 -0.306432
-3.36239 -4.55484 -1.31864
-3.11171 -4.25429 -0.873787
-2.86199 -4.55394 -1.36046
-2.79118 -5 -0.96439
-3.23705 -4.40456 -1.09621
-3.11219 -4.55439 -1.33955
-3.07678 -4.77742 -1.14151
-2.98685 -4.40411 -1.11712
-2.95144 -4.62714 -0.919088
-2.82658 -4.77697 -1.16243
-3.88203 2.65205 -0.416886
-3.48121 2.84727 -0.340672
-3.82273 3 -0.474998
-3.72541 2.76868 -0.627028
-3.68162 2.74966 -0.378779
-3.85238 2.82603 -0.445942
-3.80372 2.71037 -0.521957
-3.65197 2.92364 -0.407835
-3.60331 2.80798 -0.48385
-3.77407 2.88434 -0.551013
[...]
POINT_DATA 7451
 
FIELD FieldData 2
velocity 3 7451 double
-0.121801 -0.348273 0.00908612
1.50391e-030 3.39396e-030 -1.78793e-031
4.38834e-031 1.19885e-030 -5.27911e-032
1.25613e-030 3.36977e-030 -1.6309e-031
-0.0828882 -0.202395 0.0107681
-0.0724905 -0.199797 0.00875408
-0.0797311 -0.230363 0.0115726
-1.8681e-018 -4.50929e-018 2.96178e-019
5.61628e-018 1.39215e-017 -1.03342e-018
1.85321e-029 -7.9488e-030 -4.32293e-030
8.70408e-030 2.91421e-030 -1.892e-031
-0.40751 -0.108957 0.00080699
-0.621281 -0.141967 0.00696371
-0.699747 -0.22922 0.00562129
-0.225394 -0.0767226 0.00675672
-0.304077 -0.0928344 0.00950759
-0.402196 -0.146391 0.0089219
-0.530495 -0.133819 0.00661998
-0.587335 -0.173904 0.00493745
-0.670024 -0.191638 0.00786508
9.33451e-029 -2.82272e-031 2.69322e-032
-0.839857 0.00721445 -0.000604721
-1.09359 8.16493e-006 -0.000553052
5.39293e-029 -2.15086e-031 5.09092e-032
-0.547521 0.00334059 4.54243e-005
-0.828458 -4.90642e-005 -0.00251138
-1.33356e-016 2.4042e-019 -3.15377e-019
-0.998031 0.00123783 -5.84284e-005
-0.475689 0.0062713 -0.000809642
-0.735929 0.00188771 -0.00017169
3.17887e-029 3.27516e-030 5.75362e-032
2.09374e-029 1.33392e-030 2.73967e-031
-0.694516 -0.102881 -0.0135873
-0.876789 -0.0609736 -0.00502247
-1.05084e-016 -6.69324e-018 -1.04409e-018
-0.419785 -0.0478599 -0.00391558
-0.522356 -0.0332685 -0.00348232
-0.400731 -0.0310718 -0.00758022
-0.50171 -0.0230495 -0.00495821
-0.79124 -0.0841846 -0.00838747
-4.1967e-030 -6.42519e-029 1.35342e-030
0.0269241 0.448411 0.00556801
-4.58045e-030 -7.58581e-029 1.81719e-030
-8.15216e-031 -9.79343e-030 -4.2086e-032
0.0242091 0.299308 -0.00171028
-6.46848e-017 -7.23614e-016 1.33504e-017
-4.10043e-018 -4.16424e-017 3.44088e-019
0.02743 0.351975 -0.00338513
0.0226873 0.264444 0.00168864
-5.89447e-017 -6.30713e-016 7.20502e-018
-0.82356 -0.0160678 -0.00240309
-0.993633 -0.0096328 -0.0020805
-0.895377 -0.0127731 -0.00101874
-1.00121 -0.00264627 -0.000990774
-1.12094 -0.0170718 -0.0030981
-0.976014 -0.0169222 -0.00233109
-1.10496 -0.00464974 -0.00371798
-1.15846 -0.00253936 -0.000521619
-1.25686 -0.0168399 -0.001566
-0.559055 -0.183963 0.00455229
-0.566114 -0.100703 -0.0198684
1.80988e-029 4.94088e-030 1.88451e-031
-0.618486 -0.162835 -0.00798928
-0.683325 -0.15198 -0.00380441
-0.307378 -0.107885 0.00318179
-0.630065 -0.110122 -0.018651
-0.339892 -0.092296 -0.0101048
-0.387377 -0.0832783 -0.00815766
-0.424748 -0.449634 -0.0192388
-0.459668 -0.261082 -0.0423533
-0.598114 -0.330636 -0.0116315
-0.235885 -0.294988 0.00075883
-0.458672 -0.379934 -0.0334942
-0.512944 -0.392102 -0.0165093
-0.388117 -0.410284 -0.0122613
-0.546259 -0.304453 -0.026883
-0.380964 -0.322794 -0.0194127
-0.417195 -0.329443 -0.00470833
-1.64756e-029 -5.81142e-030 9.07935e-031
0.344361 0.0480708 -0.00462764
-1.98712e-029 -5.59247e-030 -3.90019e-031
-4.20049e-030 -1.87203e-031 6.36672e-033
0.185489 0.026679 -0.00452189
5.95047e-017 3.82161e-018 2.43308e-018
3.17744e-018 1.86076e-019 -9.54425e-021
0.210713 0.0150968 -0.000717975
0.19662 0.00965017 0.0015775
-6.8448e-017 -2.07103e-019 -9.23695e-019
2.48274e-017 1.15318e-017 -6.89739e-019
2.66673e-030 1.21422e-030 -5.12523e-032
-0.504332 -0.207979 0.00858869
2.84902e-030 1.16311e-030 -5.35129e-032
1.24167e-017 6.21699e-018 -3.86354e-019
-0.284495 -0.125574 0.00654807
9.76734e-017 4.3837e-017 -3.54036e-018
-0.284571 -0.137086 0.00760685
1.51307e-016 7.74764e-017 -3.42682e-018
-0.313825 -0.133773 0.00571846
-0.033071 -0.237229 -0.0123973
-0.0202941 -0.254107 -0.00821655
-0.0125325 -0.236133 -0.00623042
-0.0517653 -0.497183 -0.0134093
-0.0288124 -0.269252 -0.0102965
-0.0230389 -0.237786 -0.0094728
-0.0452272 -0.378528 -0.0146285
-0.0186249 -0.271653 -0.00867853
-0.0379087 -0.398549 -0.0111941
-0.031835 -0.382526 -0.0103896
0.0116759 0.283407 0.00939126
-6.4863e-031 -2.07311e-029 -1.05505e-030
-3.26232e-031 -1.57234e-029 -8.91067e-031
-0.00173552 0.231042 0.0132912
0.00653074 0.14702 0.00811943
0.00570084 0.143929 0.0081136
0.0049067 0.286246 0.0125657
2.15465e-029 2.11025e-030 6.25621e-029
0.00232496 0.135742 0.00916511
0.00115549 0.116536 0.00824675
9.38233e-031 3.47503e-030 -9.37387e-032
-0.0905937 -0.375061 0.00390577
-0.0484661 -0.230531 0.00472573
-0.0581743 -0.235132 0.00609703
-0.0603219 -0.19503 0.00587457
-0.0276791 -0.117921 0.00324749
-0.110103 -0.374436 0.00562366
-0.0760585 -0.332171 0.00551398
-0.0821754 -0.288114 0.00720755
-2.61976e-031 -4.62937e-030 -2.2508e-031
-3.7061e-018 -6.83818e-017 -4.89194e-018
3.60087e-018 6.12912e-017 4.29396e-018
0.00785384 0.140157 0.00676786
9.92324e-030 1.68988e-031 3.71074e-033
1.31463e-029 2.18204e-031 1.66806e-032
1.71484e-029 1.82617e-031 4.3801e-032
6.91023e-017 1.52388e-018 9.27697e-020
-0.51662 -0.0126755 -0.00058041
-4.7706e-030 -4.38421e-029 -2.2147e-029
-0.507197 -0.00641615 -0.000702412
8.03761e-017 -1.8255e-019 1.761e-019
-0.516041 -0.00579055 -0.00106796
-1.44389e-028 3.68284e-031 -6.74136e-032
0.479773 0.000529182 0.000696942
-5.34144e-029 4.09761e-032 -1.24735e-031
0.467426 -0.00215137 0.00128558
0.411832 -0.00129096 0.000281241
-6.61386e-017 4.47304e-020 -2.97875e-019
0.371862 -0.000258073 0.00132725
0.389794 0.000655446 0.000852971
0.529204 -0.00105956 0.00160453
0.393143 -0.00117693 0.00170837
-0.0796263 -0.325146 -0.0257352
-0.116889 -0.331487 -0.0306803
-0.169142 -0.53744 -0.0233675
-0.0892987 -0.39473 -0.0189903
-0.105758 -0.354956 -0.0307943
-0.133319 -0.480417 -0.0300874
-0.0925571 -0.3902 -0.0262506
-0.176097 -0.511028 -0.0333519
-0.106527 -0.370208 -0.0252554
-0.149953 -0.54252 -0.0275114
3.00305e-030 3.96567e-031 -6.63734e-032
-0.663265 -0.122076 0.00982648
6.4933e-030 5.1934e-031 -1.14519e-031
2.8796e-029 1.91587e-030 -1.48193e-031
-0.374209 -0.0494767 0.0102636
-9.7362e-017 -7.74491e-018 3.42513e-018
1.35446e-016 6.22873e-018 -3.97813e-018
-0.361911 -0.0437371 0.00887916
-0.377668 -0.0308869 0.00699246
-2.20877e-017 -7.19112e-019 7.81055e-019
-0.399896 -0.102205 -0.0144467
-0.679492 -0.23127 -0.01127
-0.721517 -0.112683 -0.00656275
-0.405299 -0.117909 -0.00523123
-0.561267 -0.169408 -0.0139327
-0.577136 -0.118406 -0.0113177
-0.407128 -0.114305 -0.00961355
-0.735566 -0.173588 -0.0113787
-0.572953 -0.181055 -0.00669628
-0.587949 -0.127346 -0.00634381
-0.622018 -0.0136847 0.00173181
3.2304e-030 3.88442e-032 -5.75905e-033
2.87445e-029 3.574e-031 -1.43882e-031
1.32407e-029 1.82309e-031 -2.53637e-032
-0.335625 -0.00341851 0.00118694
-0.333133 -0.00633539 0.00275431
-0.363437 -0.00431588 0.00194864
-2.38309e-016 -1.93949e-018 2.04859e-018
-1.14867e-016 -2.64053e-019 1.00794e-018
-1.06379e-029 -2.08057e-029 4.6701e-029
-0.058329 -0.395979 0.00516565
-0.05552 -0.320989 0.00535012
-0.0861008 -0.369269 0.00639809
-0.0791097 -0.41562 0.0041391
-0.732144 -0.148021 -0.0390074
-0.403022 -0.0450011 -0.0167734
-0.59597 -0.200097 -0.0431014
-0.456979 -0.145368 -0.0333136
-0.685848 -0.257967 -0.0270531
-0.606553 -0.0963624 -0.0315139
-0.539614 -0.207569 -0.0182533
-0.804317 -0.0105031 0.000521595
-3.64321e-017 4.17753e-020 8.09205e-020
-0.804924 -0.00920686 0.00330677
-0.503504 -0.00743824 0.00293797
-2.40668e-029 -2.97227e-029 5.86169e-029
-0.503713 -0.00586885 0.0044576
-0.457504 -0.00800172 0.00169406
-0.933908 -0.012804 0.00292997
-0.58636 -0.0029464 0.00296478
5.22024e-030 9.28671e-032 -5.88868e-033
-0.340201 -0.00649757 0.0018971
-7.6866e-017 -2.66037e-018 1.6811e-018
-1.01528e-016 -8.55415e-019 6.17301e-019
-1.10294 -0.0510323 0.00252129
-1.23459 -0.0414164 -0.00312249
-1.05022 -0.0267398 0.000547517
-0.97013 -0.022458 0.00320014
-1.23298 -0.0503043 7.11516e-005
-1.12752 -0.0263981 -0.00143412
-1.17524 -0.0273857 0.00131419
1.96908e-017 -1.64564e-019 -3.12858e-019
-4.71544e-029 4.4028e-031 4.63073e-031
-1.74959e-029 5.16701e-032 9.27668e-032
0.471131 -0.00441723 -0.000903426
-3.02875e-017 2.93869e-019 4.42393e-019
1.30046e-029 -3.15006e-029 9.52229e-029
0.288438 -0.00291431 -0.00292317
-3.12291e-017 1.03776e-019 3.21475e-019
0.322708 -0.00357534 -0.00234929
0.29153 0.000108384 -0.00200051
7.73837e-032 -7.07023e-030 -5.51077e-031
-3.19526e-031 -2.20647e-029 -1.33476e-030
-6.30787e-033 -2.59385e-030 -1.94079e-031
-0.00131131 0.118656 0.00916234
0.00205358 0.125645 0.00995663
5.60895e-005 0.114634 0.00810216
-7.37297e-019 -5.71901e-017 -5.5393e-018
-8.60343e-020 2.61501e-017 2.35787e-018
-1.32224e-018 -5.54037e-017 -5.06848e-018
0.0218965 0.735668 -0.00227376
-0.025888 0.533983 0.00209458
-0.0276293 0.696959 -0.0299059
-0.0282861 0.67652 -0.0134629
-0.00746042 0.779905 0.00132354
-0.00392087 0.910733 -0.0180864
-0.00674555 0.879814 -0.00919209
-0.0282085 0.674097 -0.0105396
-0.0272331 0.606228 -0.00318371
-0.0294102 0.716278 -0.0228802
0.36379 0.156032 0.0223345
-2.5618e-029 -1.51876e-030 -1.46399e-031
0.451468 0.0139768 -0.00250026
0.404212 0.100204 0.000495867
0.244234 0.00617904 -0.000735102
0.417972 0.0308581 -0.00124402
0.194854 0.00451104 0.0080638
0.408951 0.049775 -0.00200591
0.266513 0.000387753 -0.00326233
-1.97824e-018 -2.69779e-017 -1.06678e-018
1.07391e-031 1.22391e-030 5.4742e-032
-0.00758774 -0.119782 -0.00395979
-0.00812279 -0.115416 -0.00359706
-4.19409e-018 -5.2017e-017 -1.97248e-018
-0.016553 -0.129399 -0.006762
-0.0152806 -0.122276 -0.00730875
-7.41478e-018 -2.99447e-017 1.06431e-018
2.75602e-031 1.75099e-030 -3.5074e-032
-0.0311528 -0.133252 0.00400979
1.24856e-017 6.62507e-017 -1.50201e-018
1.99139e-029 -6.55464e-030 -1.19857e-031
-0.0211954 -0.131197 0.00173529
2.1886e-017 1.18885e-016 -2.32695e-018
-0.183069 -0.295717 0.00758881
1.43034e-030 2.00402e-030 -1.05799e-031
6.75595e-031 1.08762e-030 -5.24261e-032
5.07195e-031 8.84578e-031 -4.40784e-032
-0.112516 -0.169925 0.00908542
-0.102956 -0.165075 0.00802045
-0.099945 -0.169962 0.00827689
-5.13762e-017 -7.75766e-017 5.51805e-018
-2.86028e-016 -4.54206e-016 3.61521e-017
-1.97826e-016 -3.32496e-016 2.22097e-017
-1.22292e-031 -3.51792e-030 1.36043e-031
-1.82777e-031 -9.93267e-030 4.38903e-031
-5.84017e-031 -1.74094e-029 8.86238e-031
0.00964612 0.373135 -0.0110509
-3.32455e-018 -1.39831e-016 6.32784e-018
-5.49187e-019 -1.61203e-017 8.01004e-019
0.00621706 0.217669 -0.00740437
8.30156e-019 3.00345e-017 -5.88215e-018
0.00557353 0.261954 -0.0113828
0.00850424 0.259443 -0.0125579
-5.44744e-029 -1.03195e-031 1.2093e-030
-5.72034e-029 3.3902e-031 6.126e-031
0.474503 -0.0108007 -5.57824e-005
2.50483e-017 3.82269e-020 -6.31451e-019
-2.72561e-017 1.57951e-019 6.18231e-019
0.380032 -0.00294999 -0.00822823
-6.19729e-017 5.27813e-019 6.15697e-019
0.416005 -0.00159759 -0.0058863
0.366651 -0.00540256 -0.00335476
6.10421e-020 9.08651e-019 4.39248e-020
0.00730552 0.40755 0.0171216
-2.15657e-030 -6.05635e-029 -2.22178e-030
0.00840581 0.221785 0.0108062
-4.40847e-018 -7.10627e-017 -9.41521e-018
0.0200416 0.400764 0.00991406
0.00772424 0.188533 0.0124452
0.0149899 0.600726 0.0106864
0.0160517 0.389927 0.0148355
0.0206086 -0.0549561 -0.0444482
0.0193529 -0.00888388 -0.031863
-0.127518 -0.208406 -0.0335614
-0.13358 -0.0987968 -0.0447729
0.0182744 -0.0411323 -0.0426067
-0.0610425 -0.157489 -0.0425858
-0.0615407 -0.099085 -0.0511355
-0.044748 -0.0921726 -0.0303899
-0.0504334 -0.0516867 -0.0387583
-0.124716 -0.157269 -0.0396815
-0.00176742 0.372804 0.0180002
0.00696003 0.419718 0.0181137
0.00723581 0.226807 0.0137277
0.00915482 0.598225 0.0134402
0.000705708 0.633842 -0.0229908
-0.0161363 0.675881 -0.0106161
-0.0167498 0.494462 -0.0258197
-0.00076844 0.696547 -0.0351415
-0.00818759 0.702794 -0.0169468
-0.00953763 0.612772 -0.0264426
0.000372021 0.665902 -0.0296626
-0.0186142 0.625257 -0.0190088
-0.0102903 0.731783 -0.0204476
-0.0125271 0.624559 -0.031421
1.77258e-017 5.36244e-017 3.69155e-018
5.64217e-017 1.39382e-018 1.27713e-019
0.398073 0.448109 -0.0198455
0.298853 0.10857 -0.025172
1.33904e-029 3.64731e-029 4.11676e-029
0.263928 0.296977 -0.0145826
0.199812 0.112402 -0.0178249
0.297219 0.169431 -0.0168736
0.229558 0.0574351 -0.0123481
0.38125 0.255415 -0.0278765
8.27641e-019 2.04711e-017 1.63962e-018
0.00208144 0.21308 0.00882949
1.91275e-031 -1.33711e-029 -5.20772e-031
-0.00174226 0.159645 0.00332429
0.00238404 0.0993669 0.00589947
1.37621e-018 3.13265e-017 4.20529e-018
0.000630948 0.0893053 0.00351065
1.61484e-005 0.0987407 0.00542144
-0.000673558 0.190632 0.00541282
-0.0010671 0.0778931 0.00299773
6.17144e-031 3.35183e-030 -7.00529e-032
-0.041533 -0.325313 0.00228902
5.78772e-031 1.07737e-029 -1.13075e-031
9.83879e-031 4.89205e-030 -8.85889e-032
-0.0279778 -0.191614 0.00377466
-2.87668e-017 -2.44369e-016 5.6755e-018
2.21485e-029 -4.83347e-030 1.54447e-029
-0.0180297 -0.185461 0.00234974
-0.0259367 -0.177491 0.00186477
-2.30289e-017 -1.98819e-016 3.04737e-018
0.509992 -0.000296743 -0.000156424
-1.9939e-029 2.4688e-032 -5.34427e-033
-2.07293e-029 1.43518e-032 3.95024e-033
-3.53013e-029 4.92904e-032 5.81109e-033
0.344021 0.00013946 -6.59957e-005
0.345593 -0.000147558 -0.000225803
0.343539 -0.000292328 5.98993e-005
1.39782e-029 -6.22939e-020 -1.0432e-029
1.26731e-029 7.92562e-022 -1.27114e-020
2.51788e-017 6.65762e-029 -1.37473e-030
0.197811 0.735426 -0.0418336
-0.0120499 0.815946 -0.024437
-0.0176021 0.892851 -0.0789376
0.0355034 0.730423 -0.00245282
0.0901946 0.903506 -0.0466469
0.0668948 0.855883 -0.0683047
0.134961 0.844421 -0.0353675
-0.01846 0.978615 -0.0583171
0.0514877 0.834379 -0.0156028
0.0422623 0.980268 -0.0501379
-7.46434e-029 1.04976e-031 2.80988e-032
-4.39841e-029 8.87632e-032 9.76409e-032
-5.45841e-029 4.30768e-031 -3.76787e-032
0.467245 -0.00386074 1.69786e-005
1.95488e-017 -1.24061e-022 -1.02554e-019
1.9475e-017 -3.84964e-022 -5.56656e-022
0.369375 4.91113e-005 -0.00132709
8.99736e-019 -2.09143e-022 -1.00655e-021
0.330016 0.000456036 -0.00110786
0.375357 -0.00249606 0.000588599
8.09058e-030 4.70453e-030 -2.40699e-031
-0.390242 -0.236699 0.0120358
2.75633e-030 1.63361e-030 -1.02746e-031
-0.266163 -0.170485 0.00997112
-0.258501 -0.138105 0.00788044
5.69354e-016 3.83604e-016 -2.85122e-017
-0.447496 -0.225583 0.0101797
-0.235432 -0.154352 0.0113944
-0.248259 -0.136345 0.00799596
-0.832112 0.000840919 0.00593213
1.76671e-028 -2.18612e-031 -2.56514e-031
1.31468e-029 -8.40034e-032 -1.63863e-031
-0.830979 0.00506231 0.00291159
-0.551175 0.00264485 0.00274792
-0.496677 -0.000434868 0.00629131
-0.91968 0.00397623 0.00353291
-2.27232e-029 3.2522e-029 6.05197e-029
-0.468809 0.00427193 0.0018915
-0.501097 0.00634202 0.00350218
-3.56081e-029 3.50671e-031 2.32049e-031
-1.30602e-029 2.12495e-031 1.62778e-031
-2.01953e-029 -8.17356e-031 7.41677e-032
-4.52873e-017 2.00944e-018 3.86832e-019
-1.17274e-018 1.93596e-020 3.90285e-020
0.295044 -0.00257599 -0.00181531
-1.61008e-017 4.32218e-019 5.98825e-019
0.272591 -0.00560607 -0.00235525
0.282147 0.00376251 -0.0111313
-7.79587e-029 1.25434e-030 -2.57526e-031
0.37741 -0.00620302 0.0004643
0.315823 -0.00942916 0.00197268
0.342144 -0.0068215 0.000764
0.52427 -0.00781661 -0.000137916
0.541633 -0.00532245 -0.000169774
0.477137 -0.0100564 -0.000594869
-1.70685e-029 -1.33097e-031 1.65284e-032
-3.20466e-029 4.40476e-031 -1.99e-032
5.33469e-017 -2.63618e-018 -3.00976e-019
4.65978e-017 -2.0178e-018 -4.29107e-019
0.276443 -0.00338164 -0.000718902
4.1781e-018 -2.1111e-019 -4.93733e-020
0.284096 -0.00412782 -0.0028058
-5.97224e-029 2.37489e-031 2.43076e-031
0.466839 0.0016193 -0.000681053
-3.97395e-029 1.35145e-031 1.04189e-031
0.286532 -0.00148719 -0.000805854
-9.66372e-017 1.42523e-019 6.9695e-019
0.366603 -0.0029446 -0.00187844
0.298083 -6.0635e-005 -0.000782631
0.48937 -0.00148553 -0.00078687
0.314863 0.000649488 -0.00218804
-1.59863e-029 1.2039e-031 -1.2951e-031
-4.70686e-029 9.1702e-033 -3.0895e-031
-5.48142e-029 3.01611e-031 -2.65036e-031
3.31013e-017 -5.23737e-019 8.2732e-019
-3.56167e-017 6.05482e-019 -7.91606e-019
0.289639 -0.00381652 0.00570998
-2.32619e-017 3.25787e-019 -3.83889e-019
0.301169 -0.00290922 0.0038579
0.300957 -0.00332614 0.00286477
1.37025e-030 -7.95802e-030 4.2424e-031
-0.178897 0.116458 -0.0211979
1.87972e-030 -3.64343e-030 5.4549e-031
0.0739848 0.219176 -0.0278394
-0.0596895 0.0852569 -0.00558634
-1.35737e-017 -6.06393e-018 3.73405e-019
0.00839168 0.137381 -0.00683631
-0.0676416 0.0431794 -0.0050587
-0.0682671 0.181047 -0.0227324
-0.00409937 0.0769736 -0.00772809
-6.46322e-030 -3.44565e-030 -7.40985e-031
-5.19171e-029 -7.17775e-030 -8.79781e-031
-8.79772e-030 -1.88674e-029 2.69296e-031
0.204641 0.0425985 0.0332463
0.242278 0.0853411 0.0193327
0.254752 0.193022 0.0480515
2.74392e-030 5.09743e-029 -3.15817e-029
5.57715e-017 5.15547e-017 1.19114e-017
-6.94814e-017 -4.41729e-017 -1.23948e-017
-2.09119e-029 -1.04006e-031 1.86148e-032
-1.33954e-017 -1.97973e-029 -6.72272e-029
5.17932e-017 -1.74599e-018 6.61334e-021
0.306313 -0.00117727 0.00159475
-0.0936873 -0.266099 0.00269424
1.57224e-030 3.19794e-030 -5.00154e-032
-0.152038 -0.264365 -0.00474372
3.49849e-030 7.88219e-030 4.88667e-032
-0.0600792 -0.13806 0.00363705
-0.126907 -0.273905 -0.000911785
-0.0605073 -0.146057 0.00225969
-0.0838076 -0.152521 0.00158879
9.93311e-018 1.96162e-017 -4.66544e-019
-0.073264 -0.139727 -0.000153717
-0.285041 -0.324664 -0.0304211
-0.265447 -0.4868 -0.0305983
-0.118077 -0.184386 -0.0157197
-0.219212 -0.280842 -0.0369844
-0.283795 -0.416144 -0.0314901
-0.196334 -0.273228 -0.0250015
-0.222396 -0.368156 -0.0386794
-0.132689 -0.206615 -0.0219475
-0.210779 -0.364589 -0.0290594
0.46513 0.00156534 9.63876e-005
-9.39503e-029 -2.51964e-031 3.348e-031
-3.85545e-029 -1.79215e-031 5.05859e-032
0.478009 0.00207304 -0.000732995
0.304098 0.00239145 -0.000860496
0.287508 0.00237735 0.000642267
0.484968 0.00254964 -0.00102932
4.10844e-029 -8.20292e-030 -1.03012e-028
0.39758 -0.00144824 -0.00155636
0.349882 -0.000379567 -0.00032653
-1.68949e-029 2.4841e-032 1.61149e-032
-4.47368e-029 1.51343e-032 -7.84433e-033
-8.34825e-029 4.01368e-032 4.64046e-032
1.28517e-029 4.65068e-029 8.19565e-029
0.291967 -0.000454148 -0.000226849
6.35167e-017 3.06612e-019 -3.08397e-020
0.319896 0.000642406 0.000457935
-3.00306e-017 -9.64232e-020 2.61349e-020
0.291959 -7.28397e-005 -0.000394005
-2.52858e-029 4.44821e-032 -2.87378e-032
-4.9022e-029 5.09585e-032 -1.04758e-031
0.505919 -0.000569343 0.000241034
-8.46721e-029 1.15245e-031 -2.0398e-031
8.31048e-017 -1.97401e-019 4.0639e-019
0.383022 -0.000843011 0.000744831
-6.5564e-017 3.60779e-019 -1.65402e-019
0.393556 -0.000685425 0.00193623
3.11193e-017 5.71577e-020 2.05389e-019
0.373404 -0.00221208 0.000645811
0.464171 0.00117026 -0.000626715
-9.37417e-029 3.32077e-032 9.77284e-032
0.532827 0.000130849 -6.14263e-005
0.340948 0.000265862 -0.000382223
0.467238 0.00199897 0.000421349
0.37256 -0.00150332 0.00109342
0.539228 0.00197017 -0.000923267
0.379175 0.000809002 -0.000342763
1.24976e-029 1.22269e-031 -9.48719e-032
-0.344652 -0.005332 0.0046205
8.34902e-017 9.16875e-019 -3.22196e-018
-0.45879 -0.00488484 0.0047284
-0.747491 -0.0107972 0.00434013
1.18181e-030 -5.08677e-029 3.04673e-030
1.44474e-031 -9.3525e-029 5.45119e-030
-0.00939125 0.59082 -0.0346362
-4.09927e-006 0.593421 -0.0353368
-0.01165 0.409868 -0.0257909
1.30723e-018 -7.77944e-017 5.11194e-018
-0.00759682 0.484363 -0.0296339
0.000659404 0.579416 0.00149105
0.0125386 0.301415 0.00380079
0.00441202 0.577821 -0.0043927
0.000193838 0.392314 0.00221624
0.00957699 0.472363 0.00359179
0.00356138 0.582444 -0.00170446
0.000417426 0.491775 0.00266323
0.00873598 0.465365 0.00028308
0.00551024 0.37618 0.00317129
0.00209341 0.511756 5.30844e-005
0.00761711 0.282543 0.00738243
0.00189539 0.409327 0.00761071
0.000997494 0.30415 0.00485291
8.19083e-029 1.51876e-030 6.25379e-031
1.37601e-028 2.79146e-030 9.13548e-031
2.46106e-029 2.89053e-031 1.13447e-031
-0.625067 -0.00805185 -0.00346912
-0.589412 -0.00896293 -0.00568601
-0.589226 -0.00998413 -0.00342318
-1.34775e-016 3.12899e-019 -1.79261e-018
-1.59312e-016 -2.93533e-018 -1.29942e-018
-1.51395e-016 -3.13764e-018 -1.79166e-018
6.98228e-031 2.59364e-030 -5.86069e-032
-0.160371 -0.468723 -0.00263719
3.90515e-030 1.9021e-029 9.01426e-032
1.46683e-030 7.04973e-030 -1.29123e-031
-0.0923399 -0.341153 0.00650869
4.38514e-030 -4.00311e-030 -2.64135e-029
-4.14895e-017 -2.00128e-016 6.96021e-018