# vtk DataFile Version 2.0 
output.vtk, Created by Freefem++, via gregorio
ASCII
DATASET UNSTRUCTURED_GRID
POINTS 7451 double
-3.79965 2.23652 0.040848
-4.13429 2.05574 0.276253
-4.09122 2.24524 0.070091
-4.01836 2.27766 0.330071
-3.96697 2.14613 0.158551
-3.94543 2.24088 0.0554695
-3.90901 2.25709 0.185459
-4.11275 2.15049 0.173172
-4.07633 2.1667 0.303162
-4.05479 2.26145 0.200081
-4.81817 0.732763 -0.840268
-4.76136 0.37264 -0.736193
-5.12328 0.495929 -0.550642
-4.73872 0.559667 -0.434419
-4.78977 0.552702 -0.788231
-4.97072 0.614346 -0.695455
-4.77845 0.646215 -0.637344
-4.94232 0.434285 -0.643417
-4.75004 0.466153 -0.585306
-4.931 0.527798 -0.49253
-7.58244 -0.891248 -0.453516
-8 -0.559587 0.124298
-7.26059 -0.264226 0.250847
-7.58828 -0.999993 0.00381
-7.79122 -0.725418 -0.164609
-7.42152 -0.577737 -0.101334
-7.58536 -0.94562 -0.224853
-7.6303 -0.411906 0.187573
-7.79414 -0.77979 0.064054
-7.42444 -0.632109 0.127328
-5.46564 0.048234 0.998836
-5.51396 -0.351144 0.936321
-5.02851 -0.125769 0.598961
-5.56665 -0.148801 0.504295
-5.4898 -0.151455 0.967578
-5.24708 -0.0387675 0.798898
-5.51614 -0.0502835 0.751565
-5.27124 -0.238457 0.767641
-5.5403 -0.249972 0.720308
-5.29758 -0.137285 0.551628
-4.20269 -2.80441 0.102764
-3.63085 -2.57461 -0.287529
-4.13183 -2.29387 0.255347
-4.14432 -2.47254 -0.273935
-3.91677 -2.68951 -0.0923825
-4.16726 -2.54914 0.179055
-4.1735 -2.63848 -0.0855855
-3.88134 -2.43424 -0.016091
-3.88759 -2.52358 -0.280732
-4.13807 -2.38321 -0.009294
-6.25062 -0.085247 0.575431
-6.51584 -0.423084 -0.15939
-6.46019 0.447486 0.293263
-6.75561 -0.174737 0.413139
-6.38323 -0.254165 0.20802
-6.35541 0.181119 0.434347
-6.88822 -0.343655 0.0457285
-6.86039 0.09163 0.272055
-6.48801 0.012201 0.0669365
-4.88162 0.371746 0.655425
-4.51246 -0.112716 0.623981
-4.65723 0.09269 0.995695
-4.69704 0.129515 0.639703
-4.95507 0.122989 0.627193
-4.76942 0.232218 0.82556
-4.77049 -0.119243 0.611471
-4.58484 -0.010013 0.809838
-4.84287 -0.0165395 0.797328
-3.75099 1.20677 0.090288
-3.64118 0.745776 0.266863
-4.09568 0.790235 0.315934
-3.78936 1.07086 0.69071
-3.69609 0.976272 0.178575
-3.92333 0.998502 0.203111
-3.77017 1.13882 0.390499
-3.86843 0.768006 0.291399
-3.71527 0.908319 0.478787
-3.94252 0.930549 0.503322
-2.18572 0.40145 0.915881
-1.75478 0.245881 0.526965
-1.94554 -0.013967 0.999902
-1.76886 0.356252 0.93439
-1.97025 0.323665 0.721423
-2.06563 0.193741 0.957891
-1.97729 0.378851 0.925135
-1.85016 0.115957 0.763433
-1.76182 0.301067 0.730678
-1.8572 0.171143 0.967146
-5.06116 0.824959 0.710182
-4.88551 0.773989 0.80113
-4.92155 0.772883 0.437198
-5.01596 0.602336 0.857802
-4.97333 0.799474 0.755656
-4.99135 0.798921 0.57369
-5.03856 0.713647 0.783992
-4.90353 0.773436 0.619164
-4.95074 0.688163 0.829466
-4.96876 0.687609 0.6475
-2.34262 2.51752 0.051733
-2.4672 2.85727 -0.311185
-2.29554 2.81673 0.086134
-2.65762 2.74748 0.16058
-2.40491 2.6874 -0.129726
-2.31908 2.66712 0.0689335
-2.50012 2.6325 0.106157
-2.38137 2.837 -0.112526
-2.56241 2.80238 -0.0753025
-2.47658 2.7821 0.123357
-3.50303 -3.76846 -0.636668
-3.49422 -3.29308 -1.15018
-3.31427 -3.71149 -1.25136
-2.90724 -3.34218 -0.858121
-3.49863 -3.53077 -0.893424
-3.40865 -3.73997 -0.944014
-3.20514 -3.55532 -0.747394
-3.40425 -3.50228 -1.20077
-3.20073 -3.31763 -1.00415
-3.11076 -3.52683 -1.05474
-4.0054 2.49156 -0.125899
-3.5956 2.50054 -0.194198
-3.83412 2.54803 0.0159
-3.8005 2.49605 -0.160049
-3.90253 2.36404 -0.0425255
-3.91976 2.5198 -0.0549995
-3.69763 2.36853 -0.076675
-3.71486 2.52428 -0.089149
-3.81689 2.39228 0.028374
-3.73452 -3.68531 -1.05781
-3.52439 -3.6984 -1.15459
-3.61437 -3.4892 -1.104
-3.61877 -3.72688 -0.84724
-6.37864 0.944563 0.328331
-6.25891 0.813305 0.581838
-6.65332 0.772267 0.635298
-6.31878 0.878934 0.455085
-6.41941 0.696025 0.310797
-6.51598 0.858415 0.481815
-6.35955 0.630395 0.43755
-6.45612 0.792786 0.608568
-6.55675 0.609877 0.46428
1.62066 -0.841518 -0.540229
1.89324 0.238579 -0.195511
2.01627 -0.690819 -0.723027
2.25185 -0.211859 0.261412
1.75695 -0.30147 -0.36787
1.81846 -0.766169 -0.631628
1.93625 -0.526689 -0.139408
1.95475 -0.22612 -0.459269
2.07254 0.01336 0.0329505
2.13406 -0.451339 -0.230807
-2.56949 2.06853 0.305158
-2.91403 1.60744 0.564909
-3.02709 2.08175 0.021586
-2.87501 2.07662 0.630995
-2.74176 1.83799 0.435033
-2.79829 2.07514 0.163372
-2.72225 2.07258 0.468077
-2.97056 1.8446 0.293247
-2.89452 1.84203 0.597952
-2.95105 2.07919 0.32629
-5.39985 0.358755 0.933432
-5.34934 0.453264 0.543553
-5.56264 0.558471 0.829524
-5.70805 0.297641 0.954678
-5.37459 0.40601 0.738492
-5.48124 0.458613 0.881478
-5.55395 0.328198 0.944055
-5.45599 0.505868 0.686538
-5.52869 0.375452 0.749116
-5.63535 0.428056 0.892101
-4.17913 0.323834 -0.696515
-4.36183 0.516245 -0.417662
-4.60784 0.019305 -0.528365
-4.46586 0.364911 -0.72315
-4.27048 0.42004 -0.557088
-4.39349 0.17157 -0.61244
-4.3225 0.344372 -0.709832
-4.48483 0.267775 -0.473013
-4.41384 0.440578 -0.570406
-4.53685 0.192108 -0.625757
-5.9377 0.438799 -0.558905
-5.87927 0.529091 -0.848565
-6.25926 0.555743 -0.831354
-6.07929 0.245277 -0.969453
-5.90849 0.483945 -0.703735
-6.09848 0.497271 -0.695129
-6.00849 0.342038 -0.764179
-6.06927 0.542417 -0.839959
-5.97928 0.387184 -0.909009
-6.16928 0.40051 -0.900404
-3.64743 2.72944 0.180305
-3.74077 2.63873 0.0981025
-3.72354 2.48298 0.110576
-3.62151 2.61499 -0.0069465
-3.98168 0.388062 0.141859
-3.76543 0.320245 0.603448
-3.81143 0.566919 0.204361
-3.70331 0.533011 0.435156
-4.03868 0.589149 0.228897
-3.87356 0.354154 0.372653
-3.93055 0.55524 0.459691
-6.17342 0.027823 -0.593282
-6.59748 0.255766 -0.966739
-6.35964 0.547779 -0.240473
-6.21634 0.291783 -0.712318
-6.42837 0.405755 -0.899047
-6.30945 0.551761 -0.535914
-6.38545 0.141794 -0.78001
-6.26653 0.287801 -0.416878
-6.47856 0.401772 -0.603606
-5.98474 0.742767 -0.66955
-5.96122 0.590783 -0.614227
-6.122 0.649255 -0.750452
-5.93201 0.635929 -0.759057
-5.86659 0.345457 -0.129882
-5.96054 -0.099592 -0.035866
-6.02 0.18664 -0.361582
-6.11312 0.446618 -0.185177
-5.91357 0.122933 -0.082874
-6.06698 -0.0358845 -0.314574
-6.16009 0.224094 -0.13817
-1.10421 0.363269 -0.931684
-0.773878 0.737644 -0.67519
-0.520452 0.269543 -0.962988
-0.384634 0.008888 -0.353445
-0.939043 0.550457 -0.803437
-0.812329 0.316406 -0.947336
-0.74442 0.186079 -0.642564
-0.647165 0.503594 -0.819089
-0.579256 0.373266 -0.514317
-0.452543 0.139215 -0.658216
-2.85287 -3.00249 -1.21636
-3.23054 -2.92385 -1.196
-3.06719 -3.3306 -1.25351
-2.88006 -3.17233 -1.03724
-3.06889 -3.13301 -1.02706
-2.98722 -3.33639 -1.05581
-3.0417 -2.96317 -1.20618
-2.96003 -3.16654 -1.23493
-3.14886 -3.12722 -1.22475
-3.38618 -2.05134 -0.098565
-2.37808 -2.56123 -0.134541
-2.49252 -2.47812 0.422472
-2.41131 -1.89586 0.044632
-2.88213 -2.30628 -0.116553
-2.93935 -2.26473 0.161954
-2.89875 -1.9736 -0.0269665
-2.4353 -2.51967 0.143966
-2.39469 -2.22855 -0.0449545
-2.45192 -2.18699 0.233552
-1.85713 -0.413967 0.42138
-1.65927 -0.390905 0.920431
-1.2503 -0.077569 0.384148
-1.80595 -0.084043 0.474172
-1.70702 -0.072512 0.723698
-1.50254 0.084156 0.455557
-1.7582 -0.402436 0.670905
-1.55371 -0.245768 0.402764
-1.45478 -0.234237 0.652289
-2.09043 2.55218 0.167395
-2.0659 2.66009 -0.048555
-2.19298 2.68445 0.126765
-2.18072 2.73841 0.0187895
-2.07816 2.60614 0.05942
-2.21652 2.53485 0.109564
-2.20426 2.58881 0.001589
-4.01665 2.44382 0.136481
-3.97233 2.67361 0.084512
-3.92539 2.49592 0.0761905
-3.99449 2.55872 0.110496
-4.01103 2.46769 0.005291
-3.90323 2.61082 0.050206
-3.98887 2.58259 -0.0206935
-3.92754 1.80484 -0.220103
-4.28096 1.83407 -0.225431
-4.13592 1.88983 -0.461486
-4.146 2.03152 -0.278406
-4.10425 1.81945 -0.222767
-4.03173 1.84734 -0.340795
-4.03677 1.91818 -0.249254
-4.20844 1.86195 -0.343458
-4.21348 1.9328 -0.251918
-4.14096 1.96068 -0.369946
-4.04038 -5 0.949212
-3.62468 -5 1.26221
-3.84559 -4.54287 1.07336
-3.71487 -5 0.728948
-3.83253 -5 1.10571
-3.94299 -4.77144 1.01129
-3.87763 -5 0.83908
-3.73513 -4.77144 1.16779
-3.66977 -5 0.99558
-3.78023 -4.77144 0.901156
-1.37334 0.812082 -0.583544
-0.975724 0.961208 -0.275823
-1.19336 -0.166381 -0.273753
-1.17453 0.886645 -0.429683
-1.07361 0.774863 -0.629367
-1.28335 0.32285 -0.428648
-0.874801 0.849426 -0.475506
-1.08454 0.397413 -0.274788
-0.983618 0.285631 -0.474471
-3.83515 -1.82017 -0.741539
-3.34976 -1.58414 -0.592596
-3.50394 -2.07825 -1.02313
-3.59245 -1.70215 -0.667067
-3.66955 -1.94921 -0.882335
-3.61067 -1.93575 -0.420052
-3.42685 -1.83119 -0.807863
-3.36797 -1.81774 -0.345581
-3.44506 -2.06479 -0.560848
-2.72946 0.769161 0.094533
-2.75119 0.681139 -0.326037
-2.98528 1.02631 -0.281501
-3.08113 0.734324 -0.34324
-2.74032 0.72515 -0.115752
-2.85737 0.897737 -0.093484
-2.90529 0.751742 -0.124353
-2.86823 0.853726 -0.303769
-2.91616 0.707731 -0.334639
-3.03321 0.880319 -0.31237
-2.94023 -2.47675 -0.674772
-3.14499 -2.03044 -0.633684
-3.22209 -2.2775 -0.848951
-3.16321 -2.26404 -0.386669
-3.03914 -4.25341 0.579285
-2.64287 -3.80807 0.20828
-2.47531 -4.18593 0.714333
-2.97264 -3.41482 0.618231
-2.84101 -4.03074 0.393783
-2.75723 -4.21967 0.646809
-3.00589 -3.83412 0.598758
-2.55909 -3.997 0.461307
-2.80776 -3.61144 0.413255
-2.72397 -3.80037 0.666282
-2.39684 -0.595487 -0.803365
-1.98884 -0.54749 -0.836812
-2.24172 -0.466498 -0.098067
-2.21295 -0.01831 -0.514797
-2.19284 -0.571489 -0.820088
-2.31928 -0.530992 -0.450716
-2.3049 -0.306899 -0.659081
-2.11528 -0.506994 -0.46744
-2.1009 -0.2829 -0.675804
-2.22734 -0.242404 -0.306432
-3.36239 -4.55484 -1.31864
-3.11171 -4.25429 -0.873787
-2.86199 -4.55394 -1.36046
-2.79118 -5 -0.96439
-3.23705 -4.40456 -1.09621
-3.11219 -4.55439 -1.33955
-3.07678 -4.77742 -1.14151
-2.98685 -4.40411 -1.11712
-2.95144 -4.62714 -0.919088
-2.82658 -4.77697 -1.16243
-3.88203 2.65205 -0.416886
-3.48121 2.84727 -0.340672
-3.82273 3 -0.474998
-3.72541 2.76868 -0.627028
-3.68162 2.74966 -0.378779
-3.85238 2.82603 -0.445942
-3.80372 2.71037 -0.521957
-3.65197 2.92364 -0.407835
-3.60331 2.80798 -0.48385
-3.77407 2.88434 -0.551013
[...]
POINT_DATA 7451
 
FIELD FieldData 2
velocity 3 7451 double
-0.122411 -0.347364 0.00956212
1.51977e-030 3.43154e-030 -1.90077e-031
4.40671e-031 1.20189e-030 -5.61447e-032
1.27112e-030 3.41584e-030 -1.73796e-031
-0.0833796 -0.203596 0.0114703
-0.0725921 -0.199729 0.00928052
-0.0802868 -0.232309 0.0123243
-1.87379e-018 -4.5407e-018 3.15767e-019
5.66814e-018 1.41125e-017 -1.10934e-018
1.85549e-029 -7.96343e-030 -4.32637e-030
8.79913e-030 2.93089e-030 -2.00128e-031
-0.4115 -0.109312 0.00108726
-0.627541 -0.142636 0.00751793
-0.707524 -0.230953 0.00621971
-0.227363 -0.0769829 0.00706905
-0.306746 -0.0932153 0.00989913
-0.405985 -0.14698 0.00943466
-0.535789 -0.134368 0.00703343
-0.593542 -0.174659 0.00538336
-0.677104 -0.192753 0.00850951
9.4459e-029 -2.92252e-031 2.72255e-032
-0.848863 0.00732898 -0.000628473
-1.10718 4.77451e-005 -0.00060666
5.45423e-029 -2.19774e-031 5.25692e-032
-0.552865 0.00344208 7.69319e-005
-0.837077 1.09256e-005 -0.00253517
-1.34558e-016 2.50602e-019 -3.15884e-019
-1.00954 0.00128851 -7.75338e-005
-0.480058 0.00635523 -0.000801604
-0.743277 0.00192521 -0.000178564
3.21382e-029 3.3245e-030 5.71699e-032
2.11585e-029 1.35203e-030 2.74802e-031
-0.70148 -0.105006 -0.0137287
-0.886587 -0.0623727 -0.00507764
-1.47438e-016 -6.65888e-018 -1.46044e-018
-0.423461 -0.0482991 -0.00391473
-0.527211 -0.033612 -0.00349854
-0.4042 -0.031392 -0.00758556
-0.506324 -0.0232997 -0.00490146
-0.799686 -0.0859901 -0.00848287
-4.16063e-030 -6.36821e-029 1.9024e-030
0.0262653 0.424604 0.0029104
-4.53964e-030 -7.55634e-029 2.40994e-030
-7.96825e-031 -9.45714e-030 6.06697e-033
0.0237014 0.289471 -0.00370032
-5.25033e-017 -5.84319e-016 2.21469e-017
-4.00432e-018 -4.04267e-017 5.80166e-019
0.0268687 0.343443 -0.00572055
0.0220819 0.252465 0.000424936
-5.75984e-017 -6.1687e-016 1.08559e-017
-0.832516 -0.0163632 -0.00239541
-1.00552 -0.00961402 -0.00224598
-0.9052 -0.0129931 -0.000909395
-1.01271 -0.00261897 -0.000990662
-1.13456 -0.0173371 -0.00318236
-0.987064 -0.0172339 -0.00228692
-1.11843 -0.00468446 -0.00386717
-1.17257 -0.00250566 -0.000474836
-1.27287 -0.0170235 -0.00155006
-0.564562 -0.186738 0.00459746
-0.571052 -0.101939 -0.0202074
1.82891e-029 5.01083e-030 1.93165e-031
-0.624741 -0.165513 -0.00820181
-0.690237 -0.154645 -0.003844
-0.310026 -0.108995 0.0031787
-0.636004 -0.112107 -0.0188625
-0.342558 -0.0932104 -0.0102512
-0.390586 -0.0842364 -0.00826095
-0.430567 -0.454132 -0.022595
-0.467183 -0.265028 -0.0500913
-0.606692 -0.336417 -0.0147756
-0.239701 -0.301093 -0.00053928
-0.465659 -0.385472 -0.0392938
-0.520255 -0.39801 -0.0201529
-0.394302 -0.417599 -0.0161225
-0.554618 -0.309621 -0.0323003
-0.387263 -0.327727 -0.0243119
-0.423549 -0.334779 -0.00760277
-1.6771e-029 -6.30894e-030 1.12114e-030
0.349003 0.0525505 -0.00647433
-2.01432e-029 -6.02708e-030 -3.66471e-031
-4.25946e-030 -2.22733e-031 2.38456e-032
0.188293 0.0296849 -0.00605728
6.03458e-017 5.51656e-018 2.29178e-018
3.22346e-018 2.21914e-019 -2.66153e-020
0.2134 0.0173383 -0.001347
0.199178 0.0112517 0.00106169
-6.92993e-017 -6.73798e-019 -8.59226e-019
2.50075e-017 1.16258e-017 -7.02844e-019
2.69427e-030 1.22888e-030 -5.19819e-032
-0.509189 -0.210663 0.00889143
2.87809e-030 1.17697e-030 -5.41218e-032
1.25092e-017 6.26925e-018 -3.9195e-019
-0.286859 -0.126844 0.00670737
9.84219e-017 6.95821e-017 -3.58977e-018
-0.286996 -0.138491 0.00774172
1.52484e-016 7.80512e-017 -3.42705e-018
-0.316542 -0.135172 0.00582178
-0.0331868 -0.236301 -0.0136757
-0.0204063 -0.251301 -0.00888104
-0.012586 -0.235762 -0.00703868
-0.0523001 -0.498551 -0.0153898
-0.0289715 -0.266388 -0.0112708
-0.0231458 -0.23713 -0.0105336
-0.0455715 -0.378136 -0.0164829
-0.018772 -0.268901 -0.00953631
-0.0381301 -0.394401 -0.0125254
-0.0321046 -0.382677 -0.0118494
0.0112677 0.270164 0.00812645
-6.33392e-031 -2.02662e-029 -1.02253e-030
-3.16537e-031 -1.55309e-029 -8.77473e-031
-0.00173922 0.227014 0.0128889
0.00638686 0.145064 0.00809242
0.00552399 0.142361 0.00811171
0.00472648 0.276463 0.0117324
2.157e-029 2.11079e-030 6.26563e-029
0.00220984 0.13586 0.0092051
0.00111097 0.117118 0.00830358
9.38888e-031 3.45898e-030 -9.77797e-032
-0.0906195 -0.370907 0.00390499
-0.0484975 -0.229459 0.00500886
-0.0580602 -0.233198 0.00629701
-0.0603133 -0.194118 0.00620493
-0.0276231 -0.117204 0.0034205
-0.110403 -0.371706 0.00585386
-0.0760881 -0.32947 0.00569135
-0.0824186 -0.287035 0.00760617
-2.55566e-031 -4.55061e-030 -2.22791e-031
-3.62565e-018 -6.94376e-017 -5.15713e-018
3.54418e-018 6.2054e-017 4.51602e-018
0.00765906 0.137302 0.00668952
1.00254e-029 1.71267e-031 1.97224e-033
1.32825e-029 2.21923e-031 1.55912e-032
1.73283e-029 1.84426e-031 4.23174e-032
6.96072e-017 1.53948e-018 8.42154e-020
-0.521229 -0.0128264 -0.000499091
-4.84067e-030 -4.39042e-029 -2.21767e-029
-0.511709 -0.0065053 -0.000657738
-1.81877e-017 8.21128e-019 1.72019e-019
-0.52076 -0.00587112 -0.00102874
-1.46309e-028 3.68805e-031 -7.09056e-032
0.486039 0.000577775 0.000721464
-5.41026e-029 3.68724e-032 -1.27544e-031
0.473526 -0.0021942 0.00130689
0.416682 -0.00126279 0.000285063
-6.6831e-017 3.38282e-020 -3.0508e-019
0.376031 -0.000217417 0.00136258
0.394199 0.000707023 0.000860001
0.536299 -0.00104558 0.00163634
0.397585 -0.00115143 0.00174157
-0.0804732 -0.33029 -0.0291756
-0.118934 -0.344942 -0.0345734
-0.170993 -0.533743 -0.026375
-0.0912202 -0.414962 -0.0217347
-0.107239 -0.364981 -0.0350113
-0.134866 -0.482535 -0.0340528
-0.0939982 -0.403174 -0.0300618
-0.178713 -0.519339 -0.0382957
-0.108608 -0.387278 -0.0286782
-0.152424 -0.552816 -0.0317654
3.0324e-030 4.00628e-031 -6.65201e-032
-0.669703 -0.12391 0.0100166
6.55772e-030 5.25801e-031 -1.15116e-031
2.91118e-029 1.94428e-030 -1.49299e-031
-0.377338 -0.0499798 0.0102866
-9.80622e-017 -7.75958e-018 3.41279e-018
1.36444e-016 6.17666e-018 -3.95589e-018
-0.364909 -0.0442122 0.00890001
-0.380854 -0.0311395 0.00699555
-2.22467e-017 -7.02623e-019 7.7668e-019
-0.404162 -0.101755 -0.0145544
-0.687589 -0.233582 -0.0113925
-0.729717 -0.112945 -0.00681727
-0.409469 -0.11807 -0.00509779
-0.567692 -0.170058 -0.0140714
-0.583488 -0.118339 -0.0114874
-0.411417 -0.114197 -0.00959753
-0.744269 -0.175096 -0.011541
-0.579373 -0.181693 -0.00658107
-0.594379 -0.127521 -0.00634493
-0.628106 -0.0135716 0.00194801
3.26246e-030 3.82245e-032 -6.80496e-033
2.90604e-029 3.54001e-031 -1.49702e-031
1.33801e-029 1.79973e-031 -2.72249e-032
-0.338491 -0.00335435 0.00130414
-0.336026 -0.00629321 0.00284173
-0.366625 -0.00423623 0.00203443
-2.40117e-016 -1.90633e-018 2.11289e-018
-1.15758e-016 -2.38226e-019 1.05008e-018
-1.07482e-029 -2.08323e-029 4.67671e-029
-0.0587773 -0.397247 0.00548786
-0.0557324 -0.3206 0.00566647
-0.0866492 -0.36934 0.00673452
-0.0793603 -0.412808 0.00417285
-0.742553 -0.153966 -0.044283
-0.409572 -0.0379637 -0.0211731
-0.605096 -0.204983 -0.0499651
-0.464629 -0.144842 -0.0403814
-0.695808 -0.263709 -0.0315516
-0.615629 -0.0967495 -0.0375171
-0.547881 -0.209361 -0.0228451
-0.812925 -0.0103367 0.000549979
-3.67418e-017 4.33649e-020 8.294e-020
-0.813311 -0.00911954 0.00352543
-0.508194 -0.00734448 0.00301711
-2.43476e-029 -2.97605e-029 5.87015e-029
-0.50826 -0.00582116 0.00457241
-0.461727 -0.00797859 0.00171956
-0.944305 -0.0126578 0.00307055
-0.591993 -0.00286367 0.00303967
5.27249e-030 9.20522e-032 -8.42451e-033
-0.343083 -0.00644168 0.00204061
-7.7445e-017 -1.26208e-018 1.73565e-018
-1.0228e-016 -8.37747e-019 6.59774e-019
-1.11592 -0.0514803 0.00290625
-1.25056 -0.0418881 -0.00321242
-1.06249 -0.0266628 0.000710262
-0.980945 -0.022489 0.00351726
-1.24849 -0.0508104 0.000231279
-1.14116 -0.0263368 -0.00144698
-1.18963 -0.0274883 0.00148627
1.98705e-017 -1.52647e-019 -3.14351e-019
-4.77234e-029 4.59285e-031 4.6396e-031
-1.76931e-029 5.3141e-032 9.24215e-032
0.477148 -0.00459323 -0.00086806
-3.05691e-017 2.81133e-019 4.4427e-019
1.31437e-029 -3.15418e-029 9.53469e-029
0.291363 -0.00294904 -0.00292275
-3.14952e-017 1.03725e-019 3.21293e-019
0.326033 -0.00364864 -0.00232398
0.29444 9.42973e-005 -0.00200592
7.55239e-032 -7.06725e-030 -5.51921e-031
-3.15951e-031 -2.17194e-029 -1.30615e-030
-5.82707e-033 -2.61645e-030 -1.95919e-031
-0.00125941 0.119386 0.00925437
0.00198469 0.126352 0.0100551
3.53931e-005 0.115176 0.00808669
-7.08273e-019 -6.91839e-017 -5.7132e-018
-7.86946e-020 2.68796e-017 2.41954e-018
-1.28328e-018 -5.68528e-017 2.59733e-018
0.0216749 0.702106 -0.00728681
-0.0253983 0.508923 -0.00161043
-0.0278735 0.721201 -0.0369442
-0.0280071 0.656171 -0.0182752
-0.00724517 0.7456 -0.00446627
-0.00377889 0.904449 -0.0259861
-0.00646821 0.849414 -0.015708
-0.0279831 0.666385 -0.0161297
-0.0268805 0.584034 -0.00735309
-0.0293481 0.718103 -0.0291465
0.366872 0.162409 0.0242832
-2.58643e-029 -1.68626e-030 -1.79724e-031
0.456632 0.0153389 -0.00238868
0.408977 0.106238 -0.000235992
0.246515 0.00770851 -0.000862877
0.422924 0.0334979 -0.00195276
0.195464 0.00533889 0.00907055
0.412839 0.0529699 -0.00125568
0.268435 0.00110595 -0.00309495
-1.95911e-018 -2.71361e-017 -1.21961e-018
1.0759e-031 1.22107e-030 5.97154e-032
-0.00755802 -0.120045 -0.00450599
-0.00808502 -0.11499 -0.00399698
-4.15225e-018 -5.20271e-017 -2.21318e-018
-0.016599 -0.129619 -0.00748375
-0.0152784 -0.121706 -0.00786126
-7.42701e-018 -3.00552e-017 1.13331e-018
2.76376e-031 1.75478e-030 -3.74987e-032
-0.0311898 -0.133263 0.0042626
1.2487e-017 6.63499e-017 -1.63699e-018
1.994e-029 -6.56196e-030 -1.17897e-031
-0.0211772 -0.130873 0.00192801
2.18062e-017 1.18437e-016 -2.52605e-018
-0.183943 -0.295212 0.0080796
1.43896e-030 2.01143e-030 -1.11935e-031
6.77976e-031 1.08796e-030 -5.52009e-032
5.08867e-031 8.84858e-031 -4.63431e-032
-0.112943 -0.170028 0.0095627
-0.103174 -0.164911 0.00840181
-0.100084 -0.169746 0.00870034
-5.14624e-017 -7.76558e-017 5.77227e-018
-3.22554e-016 -4.54533e-016 3.78983e-017
-1.97683e-016 -3.32268e-016 2.32034e-017
-1.30476e-031 -3.93974e-030 1.68045e-031
-2.02098e-031 -1.15347e-029 5.37055e-031
-6.23356e-031 -1.97322e-029 1.07948e-030
0.0101506 0.409278 -0.0140468
-3.59246e-018 -1.62948e-016 7.65926e-018
-5.83854e-019 -1.85144e-017 9.66661e-019
0.00655548 0.243947 -0.00918618
3.1994e-018 3.51575e-017 -1.9847e-018
0.00604884 0.302195 -0.0138893
0.00904288 0.294385 -0.0152598
-5.51411e-029 -4.347e-032 1.24355e-030
-5.79207e-029 3.77941e-031 6.26453e-031
0.480823 -0.0116918 9.1194e-005
2.52957e-017 3.33001e-020 -6.41004e-019
-2.75161e-017 1.56964e-019 6.23284e-019
0.384128 -0.00321799 -0.00827361
-6.25484e-017 5.43849e-019 6.16046e-019
0.420589 -0.00188506 -0.00598054
0.370576 -0.00556167 -0.00333034
5.96718e-020 8.96019e-019 4.28705e-020
0.00721214 0.400511 0.0160879
-2.12896e-030 -5.89963e-029 -2.02211e-030
0.00828137 0.218687 0.0103944
-8.97247e-018 -7.15003e-017 -9.30502e-018
0.0196592 0.389358 0.0084092
0.0075758 0.187056 0.0122774
0.0148887 0.581213 0.00781179
0.0158474 0.379618 0.0135308
0.0199033 -0.0557473 -0.0513054
0.0190681 -0.011032 -0.0341157
-0.128933 -0.209152 -0.0357081
-0.13568 -0.100901 -0.0474226
0.0177405 -0.0441532 -0.0474666
-0.0621181 -0.159573 -0.0468917
-0.0629665 -0.10248 -0.0565835
-0.0456136 -0.0932683 -0.0323022
-0.0515546 -0.0538097 -0.0412489
-0.126483 -0.158502 -0.0421279
-0.00170869 0.364744 0.0167084
0.0069387 0.410536 0.0168823
0.00727333 0.22596 0.0135438
0.00912557 0.572309 0.0101143
0.000686403 0.675018 -0.0296726
-0.0160343 0.673539 -0.0166342
-0.0174137 0.540422 -0.0318577
-0.000688168 0.748935 -0.0437643
-0.0083237 0.724632 -0.0234123
-0.00978765 0.663367 -0.0333475
0.000340392 0.712699 -0.0373595
-0.0189092 0.65351 -0.0250128
-0.0103986 0.757157 -0.0276269
-0.0129363 0.678161 -0.038933
1.78201e-017 5.37648e-017 3.74052e-018
5.69422e-017 1.41983e-018 1.03946e-019
0.401897 0.440209 -0.0211955
0.302047 0.106967 -0.0260853
-2.79747e-017 -3.05753e-018 4.12162e-029
0.265774 0.29264 -0.0148941
0.201652 0.111924 -0.0180331
0.299557 0.167715 -0.0169663
0.231648 0.0571697 -0.0124689
0.3851 0.249993 -0.0292866
7.98797e-019 2.09694e-017 1.62521e-018
0.00199247 0.208143 0.00810386
1.87374e-031 -1.31388e-029 -4.82403e-031
-0.00166716 0.155204 0.00252888
0.00229685 0.0992546 0.00568562
1.31613e-018 3.30349e-017 4.3689e-018
0.000578748 0.0889229 0.00321347
-3.86131e-005 0.0991123 0.00530767
-0.000645766 0.185408 0.00456439
-0.00104506 0.0779248 0.00278735
6.1525e-031 3.32729e-030 -6.92092e-032
-0.0413862 -0.321637 0.00193271
5.72465e-031 1.06691e-029 -1.01873e-031
9.82168e-031 4.86422e-030 -8.65308e-032
-0.0277947 -0.189888 0.00365589
-2.85412e-017 -2.42452e-016 5.44024e-018
2.218e-029 -4.82297e-030 1.5464e-029
-0.0179415 -0.183667 0.00208393
-0.0257653 -0.176224 0.00174377
-2.2844e-017 -1.97605e-016 2.84025e-018
0.517222 -0.000287543 -0.000176997
-2.0172e-029 2.52747e-032 -4.505e-033
-2.09734e-029 1.33222e-032 4.03405e-033
-3.57266e-029 4.91205e-032 6.3879e-033
0.347631 0.000136748 -8.50853e-005
0.349251 -0.000133535 -0.000229088
0.347185 -0.000301773 6.18335e-005
1.41324e-029 -6.52742e-020 1.0022e-019
1.28149e-029 3.74624e-021 -1.15006e-020
2.53928e-017 -1.69084e-020 -1.37659e-030
0.201892 0.751604 -0.0461586
-0.0113317 0.793299 -0.0291697
-0.0171825 0.931755 -0.0884737
0.0360397 0.71086 -0.00570363
0.0919804 0.899909 -0.0533835
0.0689413 0.884313 -0.0765204
0.136527 0.842671 -0.0398702
-0.0177396 0.97989 -0.0665917
0.0524029 0.812576 -0.0198931
0.0433841 0.984116 -0.0575992
-7.55868e-029 1.08887e-031 2.18541e-032
-4.45023e-029 8.52049e-032 8.72813e-032
-5.52623e-029 4.43267e-031 -5.11736e-032
0.473053 -0.00386895 0.000133135
1.97354e-017 -5.95062e-023 -9.83946e-020
1.9673e-017 -4.48449e-022 -4.69331e-022
0.373396 4.72247e-005 -0.00127111
9.08328e-019 1.03533e-028 3.4292e-030
0.333346 0.00052104 -0.00100667
0.379436 -0.00258347 0.000707885
8.17965e-030 4.76606e-030 -2.48012e-031
-0.394536 -0.239883 0.0119241
2.78546e-030 1.65365e-030 -1.04639e-031
-0.268683 -0.172379 0.0101695
-0.260741 -0.139583 0.00811582
5.74119e-016 3.87191e-016 -2.9238e-017
-0.452044 -0.228553 0.0103225
-0.237624 -0.155981 0.0115308
-0.250383 -0.137761 0.0081908
-0.841086 0.0009401 0.00602919
1.78873e-028 -2.32411e-031 -2.62608e-031
1.32929e-029 -8.67539e-032 -1.66185e-031
-0.840017 0.00520449 0.00298284
-0.556639 0.00278217 0.00281767
-0.501314 -0.000368443 0.00637435
-0.929934 0.00410811 0.00362361
-2.2969e-029 3.25734e-029 6.06088e-029
-0.473425 0.00439763 0.00197447
-0.505902 0.00647132 0.00357278
-3.59847e-029 3.1953e-031 1.91571e-031
-1.31794e-029 1.90107e-031 1.52709e-031
-2.03593e-029 -8.92372e-031 7.21715e-033
-4.55562e-017 1.99158e-018 3.2777e-019
-1.17865e-018 1.7442e-020 3.554e-020
0.297559 -0.0021484 -0.00139504
-1.61672e-017 4.06018e-019 5.64244e-019
0.274689 -0.00521781 -0.00227384
0.283988 0.00459066 -0.0104503
-7.89616e-029 1.30705e-030 -2.97923e-031
0.381594 -0.00640894 0.000703489
0.319279 -0.00984 0.00215254
0.345911 -0.00699117 0.000827287
0.531012 -0.00837469 7.82075e-005
0.548781 -0.00563504 -9.92696e-005
0.483289 -0.0105204 -0.000489337
-1.72568e-029 -2.0062e-031 2.72548e-032
-3.24001e-029 4.06735e-031 -2.03567e-032
5.36726e-017 -2.57065e-018 -3.01098e-019
4.69421e-017 -1.94647e-018 -3.26328e-019
0.278902 -0.00269172 -0.000745259
4.20479e-018 -2.08449e-019 -4.88976e-020
0.286694 -0.00362424 -0.00279375
-6.04396e-029 2.56262e-031 2.46747e-031
0.472702 0.00157752 -0.000702779
-4.02033e-029 1.43097e-031 1.04252e-031
0.28936 -0.00155027 -0.000826952
-9.74755e-017 1.63619e-019 7.00813e-019
0.370383 -0.00307402 -0.00188201
0.301013 -0.000112133 -0.000781607
0.495552 -0.00160045 -0.000800154
0.318027 0.000598859 -0.00218611
-1.61637e-029 1.22087e-031 -1.30121e-031
-4.76177e-029 7.24115e-033 -3.10788e-031
-5.54525e-029 3.01799e-031 -2.67884e-031
3.33631e-017 -5.27512e-019 8.29801e-019
-3.58949e-017 6.07611e-019 -7.95628e-019
0.292498 -0.00385959 0.0057388
-2.34478e-017 3.25618e-019 -3.85156e-019
0.304184 -0.00292828 0.00386649
0.303935 -0.00332582 0.0028869
1.37264e-030 -7.96389e-030 4.38553e-031
-0.180492 0.117237 -0.0216761
1.89691e-030 -3.64847e-030 5.60569e-031
0.0748868 0.21678 -0.0291685
-0.0600523 0.0856254 -0.00565765
-1.36357e-017 -4.07912e-018 6.60141e-021
0.00871731 0.137605 -0.0069763
-0.068163 0.0434644 -0.00511367
-0.0687432 0.180434 -0.0236332
-0.00400067 0.0771147 -0.00786791
-6.5165e-030 -3.60542e-030 -8.0736e-031
-5.24817e-029 -7.23009e-030 -1.08023e-030
-8.92512e-030 -1.94581e-029 2.59437e-031
0.205205 0.045161 0.0356417
0.243448 0.0881362 0.021654
0.256485 0.198735 0.0512579
2.75794e-030 5.10711e-029 -3.15794e-029
5.61629e-017 5.32444e-017 1.28631e-017
-6.97818e-017 -4.53457e-017 -1.33987e-017
-2.11638e-029 -1.81435e-031 5.61976e-032
-1.35067e-017 3.99976e-019 -6.88591e-020
5.22343e-017 -1.6465e-018 -3.02809e-020
0.309403 -0.000299259 0.0013862
-0.0936888 -0.265237 0.00275945
1.5764e-030 3.19763e-030 -5.22098e-032
-0.152609 -0.263978 -0.00460822
3.50774e-030 7.88363e-030 4.73842e-032
-0.0600912 -0.137849 0.00368811
-0.12718 -0.273299 -0.000746259
-0.0605195 -0.145896 0.00229422
-0.0839441 -0.15229 0.00168323
9.9291e-018 1.95923e-017 -4.76016e-019
-0.0733807 -0.139569 -0.000103121
-0.287942 -0.325158 -0.0318079
-0.268555 -0.485619 -0.0342461
-0.118657 -0.184112 -0.0160555
-0.22151 -0.281591 -0.0389771
-0.286762 -0.416082 -0.0339042
-0.197937 -0.272926 -0.0258386
-0.224703 -0.367746 -0.0419027
-0.133674 -0.206754 -0.0228157
-0.21255 -0.363666 -0.0307206
0.470978 0.00160885 8.45082e-005
-9.51422e-029 -2.60063e-031 3.43413e-031
-3.90103e-029 -1.83396e-031 5.25158e-032
0.484125 0.00210482 -0.000744908
0.307286 0.00245311 -0.000899392
0.290398 0.00241526 0.000643522
0.491103 0.00258751 -0.00106742
4.15738e-029 -8.21045e-030 -1.03152e-028
0.401957 -0.00145079 -0.00159105
0.353509 -0.000375887 -0.000338431
-1.70873e-029 2.52952e-032 1.59937e-032
-4.52818e-029 1.37244e-032 -6.88676e-033
-8.45388e-029 4.44383e-032 4.86935e-032
1.29924e-029 4.65691e-029 8.2064e-029
0.294903 -0.000467142 -0.000207179
6.40569e-017 3.18772e-019 -3.28262e-020
0.323233 0.000656877 0.000446799
-3.03244e-017 -1.00526e-019 2.92674e-020
0.294994 -8.11503e-005 -0.000406887
-2.5599e-029 4.63317e-032 -3.0327e-032
-4.96447e-029 5.39321e-032 -1.06655e-031
0.512957 -0.000582198 0.000265587
-8.57753e-029 1.1627e-031 -2.07748e-031
8.39241e-017 -2.08874e-019 4.16016e-019
0.387259 -0.000884175 0.000774495
-6.62026e-017 3.7239e-019 -1.68509e-019
0.398 -0.000722979 0.00197949
3.14411e-017 5.69063e-020 2.07946e-019
0.377589 -0.00226651 0.000652282
0.470062 0.0011521 -0.000621828
-9.49408e-029 3.96776e-032 9.70812e-032
0.539732 9.05416e-005 -6.96845e-005
0.344605 0.000250751 -0.000347377
0.473039 0.00199303 0.000425961
0.376694 -0.00155071 0.00111269
0.546363 0.00197192 -0.000949326
0.383342 0.000804186 -0.000343509
1.2626e-029 1.21212e-031 -9.91244e-032
-0.347581 -0.00530336 0.00474973
7.82373e-017 2.9451e-018 -1.1449e-018
-0.462798 -0.00487054 0.00487016
-0.755112 -0.0106898 0.00458658
1.23029e-030 -5.72225e-029 3.67111e-030
1.47844e-031 -1.05555e-028 6.59959e-030
-0.00984657 0.669519 -0.0416057
4.51684e-005 0.676683 -0.0423493
-0.012233 0.467323 -0.0308608
1.39184e-018 -9.06646e-017 6.06406e-018
-0.00804942 0.556927 -0.0355016
0.000640876 0.529825 -0.0028586
0.0120814 0.277711 0.00207768
0.00423232 0.541977 -0.00854585
0.000134083 0.355045 -0.000260891
0.00918811 0.429914 0.000334069
0.0033931 0.538508 -0.00586663
0.000339849 0.445211 -0.000518761
0.00846439 0.424521 -0.00280846
0.00518626 0.343179 0.000905495
0.00190242 0.463109 -0.00326732
0.00724542 0.265945 0.00601813
0.00183142 0.376226 0.00510559
0.000930017 0.283877 0.00311761
8.28574e-029 1.54008e-030 6.60189e-031
1.39293e-028 2.80762e-030 9.67915e-031
2.48818e-029 2.90004e-031 1.20456e-031
-0.631308 -0.00810363 -0.0036811
-0.595256 -0.00889753 -0.00592025
-0.594956 -0.0100289 -0.00359267
-1.35984e-016 3.4492e-019 -1.89614e-018
-1.6065e-016 -2.95886e-018 -1.36575e-018
-1.52645e-016 -3.13514e-018 -1.86294e-018
7.18219e-031 2.71472e-030 -5.98932e-032
-0.164071 -0.489617 -0.00404286
4.01503e-030 1.99845e-029 1.28298e-031
1.51044e-030 7.39649e-030 -1.33334e-031
-0.0948505 -0.356425 0.00657156
4.37786e-030 -4.10528e-030 -2.64466e-029
-4.28249e-017 -2.09578e-016 7.38253e-018