# vtk DataFile Version 2.0 
output.vtk, Created by Freefem++, via gregorio
ASCII
DATASET UNSTRUCTURED_GRID
POINTS 7451 double
-3.79965 2.23652 0.040848
-4.13429 2.05574 0.276253
-4.09122 2.24524 0.070091
-4.01836 2.27766 0.330071
-3.96697 2.14613 0.158551
-3.94543 2.24088 0.0554695
-3.90901 2.25709 0.185459
-4.11275 2.15049 0.173172
-4.07633 2.1667 0.303162
-4.05479 2.26145 0.200081
-4.81817 0.732763 -0.840268
-4.76136 0.37264 -0.736193
-5.12328 0.495929 -0.550642
-4.73872 0.559667 -0.434419
-4.78977 0.552702 -0.788231
-4.97072 0.614346 -0.695455
-4.77845 0.646215 -0.637344
-4.94232 0.434285 -0.643417
-4.75004 0.466153 -0.585306
-4.931 0.527798 -0.49253
-7.58244 -0.891248 -0.453516
-8 -0.559587 0.124298
-7.26059 -0.264226 0.250847
-7.58828 -0.999993 0.00381
-7.79122 -0.725418 -0.164609
-7.42152 -0.577737 -0.101334
-7.58536 -0.94562 -0.224853
-7.6303 -0.411906 0.187573
-7.79414 -0.77979 0.064054
-7.42444 -0.632109 0.127328
-5.46564 0.048234 0.998836
-5.51396 -0.351144 0.936321
-5.02851 -0.125769 0.598961
-5.56665 -0.148801 0.504295
-5.4898 -0.151455 0.967578
-5.24708 -0.0387675 0.798898
-5.51614 -0.0502835 0.751565
-5.27124 -0.238457 0.767641
-5.5403 -0.249972 0.720308
-5.29758 -0.137285 0.551628
-4.20269 -2.80441 0.102764
-3.63085 -2.57461 -0.287529
-4.13183 -2.29387 0.255347
-4.14432 -2.47254 -0.273935
-3.91677 -2.68951 -0.0923825
-4.16726 -2.54914 0.179055
-4.1735 -2.63848 -0.0855855
-3.88134 -2.43424 -0.016091
-3.88759 -2.52358 -0.280732
-4.13807 -2.38321 -0.009294
-6.25062 -0.085247 0.575431
-6.51584 -0.423084 -0.15939
-6.46019 0.447486 0.293263
-6.75561 -0.174737 0.413139
-6.38323 -0.254165 0.20802
-6.35541 0.181119 0.434347
-6.88822 -0.343655 0.0457285
-6.86039 0.09163 0.272055
-6.48801 0.012201 0.0669365
-4.88162 0.371746 0.655425
-4.51246 -0.112716 0.623981
-4.65723 0.09269 0.995695
-4.69704 0.129515 0.639703
-4.95507 0.122989 0.627193
-4.76942 0.232218 0.82556
-4.77049 -0.119243 0.611471
-4.58484 -0.010013 0.809838
-4.84287 -0.0165395 0.797328
-3.75099 1.20677 0.090288
-3.64118 0.745776 0.266863
-4.09568 0.790235 0.315934
-3.78936 1.07086 0.69071
-3.69609 0.976272 0.178575
-3.92333 0.998502 0.203111
-3.77017 1.13882 0.390499
-3.86843 0.768006 0.291399
-3.71527 0.908319 0.478787
-3.94252 0.930549 0.503322
-2.18572 0.40145 0.915881
-1.75478 0.245881 0.526965
-1.94554 -0.013967 0.999902
-1.76886 0.356252 0.93439
-1.97025 0.323665 0.721423
-2.06563 0.193741 0.957891
-1.97729 0.378851 0.925135
-1.85016 0.115957 0.763433
-1.76182 0.301067 0.730678
-1.8572 0.171143 0.967146
-5.06116 0.824959 0.710182
-4.88551 0.773989 0.80113
-4.92155 0.772883 0.437198
-5.01596 0.602336 0.857802
-4.97333 0.799474 0.755656
-4.99135 0.798921 0.57369
-5.03856 0.713647 0.783992
-4.90353 0.773436 0.619164
-4.95074 0.688163 0.829466
-4.96876 0.687609 0.6475
-2.34262 2.51752 0.051733
-2.4672 2.85727 -0.311185
-2.29554 2.81673 0.086134
-2.65762 2.74748 0.16058
-2.40491 2.6874 -0.129726
-2.31908 2.66712 0.0689335
-2.50012 2.6325 0.106157
-2.38137 2.837 -0.112526
-2.56241 2.80238 -0.0753025
-2.47658 2.7821 0.123357
-3.50303 -3.76846 -0.636668
-3.49422 -3.29308 -1.15018
-3.31427 -3.71149 -1.25136
-2.90724 -3.34218 -0.858121
-3.49863 -3.53077 -0.893424
-3.40865 -3.73997 -0.944014
-3.20514 -3.55532 -0.747394
-3.40425 -3.50228 -1.20077
-3.20073 -3.31763 -1.00415
-3.11076 -3.52683 -1.05474
-4.0054 2.49156 -0.125899
-3.5956 2.50054 -0.194198
-3.83412 2.54803 0.0159
-3.8005 2.49605 -0.160049
-3.90253 2.36404 -0.0425255
-3.91976 2.5198 -0.0549995
-3.69763 2.36853 -0.076675
-3.71486 2.52428 -0.089149
-3.81689 2.39228 0.028374
-3.73452 -3.68531 -1.05781
-3.52439 -3.6984 -1.15459
-3.61437 -3.4892 -1.104
-3.61877 -3.72688 -0.84724
-6.37864 0.944563 0.328331
-6.25891 0.813305 0.581838
-6.65332 0.772267 0.635298
-6.31878 0.878934 0.455085
-6.41941 0.696025 0.310797
-6.51598 0.858415 0.481815
-6.35955 0.630395 0.43755
-6.45612 0.792786 0.608568
-6.55675 0.609877 0.46428
1.62066 -0.841518 -0.540229
1.89324 0.238579 -0.195511
2.01627 -0.690819 -0.723027
2.25185 -0.211859 0.261412
1.75695 -0.30147 -0.36787
1.81846 -0.766169 -0.631628
1.93625 -0.526689 -0.139408
1.95475 -0.22612 -0.459269
2.07254 0.01336 0.0329505
2.13406 -0.451339 -0.230807
-2.56949 2.06853 0.305158
-2.91403 1.60744 0.564909
-3.02709 2.08175 0.021586
-2.87501 2.07662 0.630995
-2.74176 1.83799 0.435033
-2.79829 2.07514 0.163372
-2.72225 2.07258 0.468077
-2.97056 1.8446 0.293247
-2.89452 1.84203 0.597952
-2.95105 2.07919 0.32629
-5.39985 0.358755 0.933432
-5.34934 0.453264 0.543553
-5.56264 0.558471 0.829524
-5.70805 0.297641 0.954678
-5.37459 0.40601 0.738492
-5.48124 0.458613 0.881478
-5.55395 0.328198 0.944055
-5.45599 0.505868 0.686538
-5.52869 0.375452 0.749116
-5.63535 0.428056 0.892101
-4.17913 0.323834 -0.696515
-4.36183 0.516245 -0.417662
-4.60784 0.019305 -0.528365
-4.46586 0.364911 -0.72315
-4.27048 0.42004 -0.557088
-4.39349 0.17157 -0.61244
-4.3225 0.344372 -0.709832
-4.48483 0.267775 -0.473013
-4.41384 0.440578 -0.570406
-4.53685 0.192108 -0.625757
-5.9377 0.438799 -0.558905
-5.87927 0.529091 -0.848565
-6.25926 0.555743 -0.831354
-6.07929 0.245277 -0.969453
-5.90849 0.483945 -0.703735
-6.09848 0.497271 -0.695129
-6.00849 0.342038 -0.764179
-6.06927 0.542417 -0.839959
-5.97928 0.387184 -0.909009
-6.16928 0.40051 -0.900404
-3.64743 2.72944 0.180305
-3.74077 2.63873 0.0981025
-3.72354 2.48298 0.110576
-3.62151 2.61499 -0.0069465
-3.98168 0.388062 0.141859
-3.76543 0.320245 0.603448
-3.81143 0.566919 0.204361
-3.70331 0.533011 0.435156
-4.03868 0.589149 0.228897
-3.87356 0.354154 0.372653
-3.93055 0.55524 0.459691
-6.17342 0.027823 -0.593282
-6.59748 0.255766 -0.966739
-6.35964 0.547779 -0.240473
-6.21634 0.291783 -0.712318
-6.42837 0.405755 -0.899047
-6.30945 0.551761 -0.535914
-6.38545 0.141794 -0.78001
-6.26653 0.287801 -0.416878
-6.47856 0.401772 -0.603606
-5.98474 0.742767 -0.66955
-5.96122 0.590783 -0.614227
-6.122 0.649255 -0.750452
-5.93201 0.635929 -0.759057
-5.86659 0.345457 -0.129882
-5.96054 -0.099592 -0.035866
-6.02 0.18664 -0.361582
-6.11312 0.446618 -0.185177
-5.91357 0.122933 -0.082874
-6.06698 -0.0358845 -0.314574
-6.16009 0.224094 -0.13817
-1.10421 0.363269 -0.931684
-0.773878 0.737644 -0.67519
-0.520452 0.269543 -0.962988
-0.384634 0.008888 -0.353445
-0.939043 0.550457 -0.803437
-0.812329 0.316406 -0.947336
-0.74442 0.186079 -0.642564
-0.647165 0.503594 -0.819089
-0.579256 0.373266 -0.514317
-0.452543 0.139215 -0.658216
-2.85287 -3.00249 -1.21636
-3.23054 -2.92385 -1.196
-3.06719 -3.3306 -1.25351
-2.88006 -3.17233 -1.03724
-3.06889 -3.13301 -1.02706
-2.98722 -3.33639 -1.05581
-3.0417 -2.96317 -1.20618
-2.96003 -3.16654 -1.23493
-3.14886 -3.12722 -1.22475
-3.38618 -2.05134 -0.098565
-2.37808 -2.56123 -0.134541
-2.49252 -2.47812 0.422472
-2.41131 -1.89586 0.044632
-2.88213 -2.30628 -0.116553
-2.93935 -2.26473 0.161954
-2.89875 -1.9736 -0.0269665
-2.4353 -2.51967 0.143966
-2.39469 -2.22855 -0.0449545
-2.45192 -2.18699 0.233552
-1.85713 -0.413967 0.42138
-1.65927 -0.390905 0.920431
-1.2503 -0.077569 0.384148
-1.80595 -0.084043 0.474172
-1.70702 -0.072512 0.723698
-1.50254 0.084156 0.455557
-1.7582 -0.402436 0.670905
-1.55371 -0.245768 0.402764
-1.45478 -0.234237 0.652289
-2.09043 2.55218 0.167395
-2.0659 2.66009 -0.048555
-2.19298 2.68445 0.126765
-2.18072 2.73841 0.0187895
-2.07816 2.60614 0.05942
-2.21652 2.53485 0.109564
-2.20426 2.58881 0.001589
-4.01665 2.44382 0.136481
-3.97233 2.67361 0.084512
-3.92539 2.49592 0.0761905
-3.99449 2.55872 0.110496
-4.01103 2.46769 0.005291
-3.90323 2.61082 0.050206
-3.98887 2.58259 -0.0206935
-3.92754 1.80484 -0.220103
-4.28096 1.83407 -0.225431
-4.13592 1.88983 -0.461486
-4.146 2.03152 -0.278406
-4.10425 1.81945 -0.222767
-4.03173 1.84734 -0.340795
-4.03677 1.91818 -0.249254
-4.20844 1.86195 -0.343458
-4.21348 1.9328 -0.251918
-4.14096 1.96068 -0.369946
-4.04038 -5 0.949212
-3.62468 -5 1.26221
-3.84559 -4.54287 1.07336
-3.71487 -5 0.728948
-3.83253 -5 1.10571
-3.94299 -4.77144 1.01129
-3.87763 -5 0.83908
-3.73513 -4.77144 1.16779
-3.66977 -5 0.99558
-3.78023 -4.77144 0.901156
-1.37334 0.812082 -0.583544
-0.975724 0.961208 -0.275823
-1.19336 -0.166381 -0.273753
-1.17453 0.886645 -0.429683
-1.07361 0.774863 -0.629367
-1.28335 0.32285 -0.428648
-0.874801 0.849426 -0.475506
-1.08454 0.397413 -0.274788
-0.983618 0.285631 -0.474471
-3.83515 -1.82017 -0.741539
-3.34976 -1.58414 -0.592596
-3.50394 -2.07825 -1.02313
-3.59245 -1.70215 -0.667067
-3.66955 -1.94921 -0.882335
-3.61067 -1.93575 -0.420052
-3.42685 -1.83119 -0.807863
-3.36797 -1.81774 -0.345581
-3.44506 -2.06479 -0.560848
-2.72946 0.769161 0.094533
-2.75119 0.681139 -0.326037
-2.98528 1.02631 -0.281501
-3.08113 0.734324 -0.34324
-2.74032 0.72515 -0.115752
-2.85737 0.897737 -0.093484
-2.90529 0.751742 -0.124353
-2.86823 0.853726 -0.303769
-2.91616 0.707731 -0.334639
-3.03321 0.880319 -0.31237
-2.94023 -2.47675 -0.674772
-3.14499 -2.03044 -0.633684
-3.22209 -2.2775 -0.848951
-3.16321 -2.26404 -0.386669
-3.03914 -4.25341 0.579285
-2.64287 -3.80807 0.20828
-2.47531 -4.18593 0.714333
-2.97264 -3.41482 0.618231
-2.84101 -4.03074 0.393783
-2.75723 -4.21967 0.646809
-3.00589 -3.83412 0.598758
-2.55909 -3.997 0.461307
-2.80776 -3.61144 0.413255
-2.72397 -3.80037 0.666282
-2.39684 -0.595487 -0.803365
-1.98884 -0.54749 -0.836812
-2.24172 -0.466498 -0.098067
-2.21295 -0.01831 -0.514797
-2.19284 -0.571489 -0.820088
-2.31928 -0.530992 -0.450716
-2.3049 -0.306899 -0.659081
-2.11528 -0.506994 -0.46744
-2.1009 -0.2829 -0.675804
-2.22734 -0.242404 -0.306432
-3.36239 -4.55484 -1.31864
-3.11171 -4.25429 -0.873787
-2.86199 -4.55394 -1.36046
-2.79118 -5 -0.96439
-3.23705 -4.40456 -1.09621
-3.11219 -4.55439 -1.33955
-3.07678 -4.77742 -1.14151
-2.98685 -4.40411 -1.11712
-2.95144 -4.62714 -0.919088
-2.82658 -4.77697 -1.16243
-3.88203 2.65205 -0.416886
-3.48121 2.84727 -0.340672
-3.82273 3 -0.474998
-3.72541 2.76868 -0.627028
-3.68162 2.74966 -0.378779
-3.85238 2.82603 -0.445942
-3.80372 2.71037 -0.521957
-3.65197 2.92364 -0.407835
-3.60331 2.80798 -0.48385
-3.77407 2.88434 -0.551013
[...]
POINT_DATA 7451
 
FIELD FieldData 2
velocity 3 7451 double
-0.122716 -0.347994 0.00974713
1.53271e-030 3.46235e-030 -1.94023e-031
4.44346e-031 1.21174e-030 -5.72866e-032
1.28232e-030 3.4472e-030 -1.77094e-031
-0.0835787 -0.204135 0.0116378
-0.0727571 -0.200139 0.00941309
-0.0805015 -0.232968 0.012476
-1.87798e-018 -4.55324e-018 3.19871e-019
5.68317e-018 1.41618e-017 -1.12351e-018
1.86635e-029 -8.0122e-030 -4.35138e-030
8.84941e-030 2.94531e-030 -2.02474e-031
-0.411412 -0.109189 0.00111683
-0.627407 -0.142496 0.00758575
-0.707459 -0.230693 0.00635072
-0.227293 -0.0769027 0.00709585
-0.306649 -0.093121 0.00993061
-0.40589 -0.146829 0.00949082
-0.535676 -0.134223 0.0070767
-0.593458 -0.174461 0.00544563
-0.676996 -0.192539 0.00860446
9.50073e-029 -2.94573e-031 2.74164e-032
-0.848752 0.00733272 -0.000630299
-1.1072 5.32472e-005 -0.000611991
5.48562e-029 -2.2125e-031 5.30058e-032
-0.552748 0.00344767 7.95639e-005
-0.836947 1.62397e-005 -0.002535
-1.3452e-016 2.51109e-019 -3.1563e-019
-1.00949 0.0012932 -7.99599e-005
-0.479932 0.00635608 -0.000800103
-0.743134 0.00192651 -0.000179466
3.23225e-029 3.33963e-030 5.71654e-032
2.12799e-029 1.35694e-030 2.74406e-031
-0.701364 -0.105091 -0.013654
-0.886541 -0.0624297 -0.00506887
-1.05864e-016 -6.60908e-018 -1.44807e-018
-0.423351 -0.048136 -0.00388249
-0.527088 -0.0335219 -0.00348398
-0.404098 -0.0313071 -0.00752533
-0.506215 -0.0232403 -0.0048646
-0.799619 -0.0860498 -0.00844951
-4.13072e-030 -6.32372e-029 1.98489e-030
0.0260056 0.422888 0.00310871
-4.51205e-030 -7.52945e-029 2.49568e-030
-7.9458e-031 -9.46629e-030 -3.91339e-033
0.023422 0.286544 -0.00360278
-6.26066e-017 -5.76192e-016 1.82393e-017
-3.9659e-018 -4.00595e-017 5.38396e-019
0.0265313 0.339785 -0.00560773
0.0219182 0.25154 0.000767138
-5.70012e-017 -6.10882e-016 1.02836e-017
-0.832428 -0.0163663 -0.00239247
-1.0055 -0.00958725 -0.00226355
-0.905101 -0.0130032 -0.000897354
-1.01265 -0.00261269 -0.000990936
-1.13456 -0.0173407 -0.00319129
-0.98699 -0.0172453 -0.00228229
-1.11844 -0.00467729 -0.00387919
-1.17258 -0.00249929 -0.000470991
-1.27294 -0.0170118 -0.00154832
-0.564386 -0.186615 0.00451125
-0.570794 -0.102026 -0.0200169
1.83907e-029 5.02698e-030 1.93175e-031
-0.624556 -0.165529 -0.00817908
-0.690073 -0.154636 -0.00383748
-0.309886 -0.108579 0.00313612
-0.635831 -0.11219 -0.0187385
-0.342378 -0.0926677 -0.0101476
-0.390424 -0.0838969 -0.0081978
-0.430976 -0.456036 -0.02253
-0.467239 -0.268678 -0.0507307
-0.606791 -0.338817 -0.0150294
-0.239918 -0.301791 -0.000817181
-0.465898 -0.388439 -0.039561
-0.520502 -0.400425 -0.0202475
-0.394703 -0.420309 -0.0165051
-0.554707 -0.312748 -0.0327606
-0.387444 -0.330365 -0.0249602
-0.423739 -0.336763 -0.00805608
-1.68622e-029 -6.40377e-030 1.16921e-030
0.348631 0.0526822 -0.00675872
-2.02422e-029 -6.11859e-030 -3.66651e-031
-4.2804e-030 -2.33747e-031 2.93649e-032
0.18816 0.0303225 -0.00647792
6.02702e-017 6.34685e-018 2.21164e-018
3.22146e-018 2.36716e-019 -3.40355e-020
0.213229 0.0180064 -0.00152366
0.198992 0.011658 0.000849886
-6.92495e-017 -9.67356e-019 -7.87541e-019
2.49921e-017 1.16073e-017 -6.919e-019
2.70915e-030 1.235e-030 -5.13729e-032
-0.509002 -0.210922 0.00888866
2.89398e-030 1.18253e-030 -5.35799e-032
1.25019e-017 6.25829e-018 -3.85477e-019
-0.286713 -0.126791 0.00663685
9.83663e-017 4.41287e-017 -3.5135e-018
-0.286862 -0.138395 0.00764567
1.52404e-016 7.78622e-017 -3.34804e-018
-0.316396 -0.135061 0.00571917
-0.0332544 -0.236711 -0.0137445
-0.0204456 -0.25204 -0.00890511
-0.0126064 -0.236157 -0.00708986
-0.0524596 -0.499355 -0.0155361
-0.0290349 -0.266901 -0.0113088
-0.0231888 -0.237531 -0.0105978
-0.0456938 -0.378731 -0.016607
-0.0188146 -0.269403 -0.00958021
-0.0382243 -0.395027 -0.01259
-0.0321929 -0.383293 -0.0119497
0.011152 0.273155 0.00824402
-6.30978e-031 -2.05811e-029 -1.04341e-030
-3.15801e-031 -1.57798e-029 -8.887e-031
-0.00171225 0.22933 0.0130197
0.00635721 0.146683 0.00816535
0.00547812 0.14385 0.00818059
0.00464643 0.279171 0.0118149
2.16941e-029 2.2064e-030 6.30314e-029
0.00210427 0.137259 0.00929897
0.0010646 0.118307 0.00836196
9.468e-031 3.48662e-030 -9.969e-032
-0.090847 -0.371724 0.00400577
-0.0486227 -0.22985 0.00507376
-0.0582057 -0.233687 0.00637631
-0.060457 -0.194492 0.00629555
-0.0276903 -0.117422 0.00346266
-0.110681 -0.372399 0.00599714
-0.0762838 -0.330068 0.00578202
-0.0826275 -0.287537 0.00772326
-2.55513e-031 -4.62765e-030 -2.27657e-031
-3.60759e-018 -7.01311e-017 -5.19818e-018
3.53518e-018 6.2717e-017 4.55374e-018
0.00760946 0.138752 0.00676489
1.00821e-029 1.72292e-031 1.76272e-033
1.33576e-029 2.23282e-031 1.56293e-032
1.74266e-029 1.85447e-031 4.23819e-032
6.95764e-017 1.53907e-018 8.31601e-020
-0.521076 -0.0128282 -0.000487882
-4.86706e-030 -4.41643e-029 -2.23079e-029
-0.511556 -0.00650508 -0.000654128
-1.81801e-017 -1.84275e-019 1.71642e-019
-0.520622 -0.0058717 -0.00102363
-1.47067e-028 3.70576e-031 -7.12448e-032
0.4857 0.000581477 0.000721698
-5.43812e-029 3.67991e-032 -1.28165e-031
0.473193 -0.0021941 0.00130701
0.416359 -0.00125914 0.000283505
-6.67736e-017 3.32647e-020 -3.04875e-019
0.375726 -0.000215341 0.00136214
0.39388 0.000709395 0.000857884
0.535938 -0.00104144 0.00163545
0.397263 -0.00114893 0.00174043
-0.0807031 -0.331208 -0.0294897
-0.119355 -0.347143 -0.0350723
-0.171486 -0.534611 -0.0264924
-0.091602 -0.418045 -0.0220988
-0.1076 -0.366634 -0.0354744
-0.135269 -0.483546 -0.0343414
-0.0943211 -0.405129 -0.0305001
-0.179269 -0.52118 -0.03872
-0.109036 -0.389937 -0.0291427
-0.152954 -0.554619 -0.032169
3.04933e-030 4.02138e-031 -6.64962e-032
-0.669509 -0.12394 0.00998033
6.59434e-030 5.28285e-031 -1.15231e-031
2.9278e-029 1.95381e-030 -1.49292e-031
-0.3772 -0.0498949 0.010226
-9.80169e-017 -7.72374e-018 3.3908e-018
1.36385e-016 6.122e-018 -3.92842e-018
-0.364762 -0.044163 0.00885115
-0.380713 -0.0310696 0.0069528
-2.22359e-017 -6.93121e-019 7.71719e-019
-0.404136 -0.10164 -0.0145394
-0.687619 -0.233273 -0.011274
-0.729657 -0.112699 -0.00684623
-0.409417 -0.117935 -0.00507262
-0.567697 -0.169782 -0.0140195
-0.583436 -0.118146 -0.011478
-0.411382 -0.114067 -0.00957783
-0.744254 -0.17479 -0.0114958
-0.579355 -0.18145 -0.00652275
-0.59432 -0.127327 -0.00633079
-0.627967 -0.0135431 0.00196648
3.28079e-030 3.83251e-032 -6.9339e-033
2.92265e-029 3.55212e-031 -1.50912e-031
1.34561e-029 1.80533e-031 -2.75197e-032
-0.33838 -0.00334283 0.00131481
-0.33592 -0.00628235 0.00284672
-0.366513 -0.00422239 0.00204059
-2.40019e-016 -1.9009e-018 2.11717e-018
-1.73599e-016 -2.34935e-019 1.05345e-018
-1.08089e-029 -2.09552e-029 4.7044e-029
-0.0589448 -0.397942 0.00556388
-0.0558858 -0.321143 0.0057361
-0.0868911 -0.37001 0.00683913
-0.0795701 -0.413427 0.0042436
-0.742477 -0.156955 -0.0445837
-0.409527 -0.038499 -0.0219454
-0.605084 -0.208393 -0.0504428
-0.464592 -0.147858 -0.0412769
-0.695814 -0.266486 -0.0318335
-0.615523 -0.100004 -0.038174
-0.547874 -0.211804 -0.0234697
-0.812817 -0.0103028 0.000551355
-3.67298e-017 4.34348e-020 8.29377e-020
-0.813181 -0.00909003 0.00354411
-0.508063 -0.00732645 0.00302042
-2.44854e-029 -2.99362e-029 5.90492e-029
-0.508116 -0.00580851 0.00457692
-0.461606 -0.00796762 0.00171934
-0.944214 -0.0126199 0.00308008
-0.591858 -0.00285216 0.00304175
5.30213e-030 9.23519e-032 -8.70072e-033
-0.342968 -0.00642842 0.00205045
-7.7413e-017 -1.25998e-018 1.73813e-018
-1.02237e-016 -8.34811e-019 6.62911e-019
-1.11587 -0.0513866 0.002954
-1.25065 -0.0418183 -0.00322485
-1.06244 -0.0265909 0.000725599
-0.980845 -0.0224284 0.00355013
-1.24854 -0.0507229 0.000250165
-1.14116 -0.0262658 -0.00144868
-1.18964 -0.0274237 0.00150396
1.9854e-017 -1.52913e-019 -3.13765e-019
-4.79673e-029 4.56919e-031 4.63054e-031
-1.77825e-029 5.27508e-032 9.27505e-032
0.476816 -0.00456176 -0.000860323
-3.05419e-017 2.81404e-019 4.42994e-019
1.32098e-029 -3.17267e-029 9.59084e-029
0.29111 -0.00292478 -0.00291464
-3.14635e-017 1.02449e-019 3.20689e-019
0.325745 -0.00362854 -0.00231877
0.294177 0.000105398 -0.00199994
7.61059e-032 -7.17493e-030 -5.61659e-031
-3.13356e-031 -2.20367e-029 -1.33311e-030
-5.43285e-033 -2.65817e-030 -1.98353e-031
-0.00125123 0.120616 0.00926624
0.00196485 0.127598 0.0101322
2.2236e-005 0.116325 0.00815103
-6.97109e-019 -5.93076e-017 -7.11281e-018
-8.27931e-020 2.71508e-017 2.42193e-018
-1.26264e-018 -5.74021e-017 2.6142e-018
0.021454 0.695209 -0.00763434
-0.0251326 0.503812 -0.00167688
-0.0275072 0.713913 -0.0390163
-0.0276991 0.647041 -0.0187301
-0.0071332 0.737802 -0.00501177
-0.00367584 0.891135 -0.0277433
-0.00632051 0.839428 -0.0165099
-0.0276378 0.656327 -0.0170938
-0.0266041 0.577185 -0.00756737
-0.0289608 0.708398 -0.0303453
0.36645 0.161787 0.0247069
-2.59868e-029 -1.72211e-030 -1.94735e-031
0.456251 0.0152608 -0.00231417
0.408565 0.106068 -0.000200637
0.24623 0.0082377 -0.000841649
0.422494 0.0334541 -0.00200195
0.195115 0.00562299 0.00938518
0.412449 0.0527848 -0.0010286
0.268116 0.00137973 -0.00296911
-1.95488e-018 -2.71995e-017 -1.22854e-018
1.08339e-031 1.23076e-030 6.03033e-032
-0.0075536 -0.120287 -0.0045389
-0.00808585 -0.115208 -0.00401384
-4.14612e-018 -5.21435e-017 -2.22392e-018
-0.0166197 -0.129884 -0.00752531
-0.0152969 -0.121938 -0.00788692
-7.44524e-018 -3.01243e-017 1.14488e-018
2.78719e-031 1.76875e-030 -3.81057e-032
-0.0312679 -0.133536 0.00430931
1.25179e-017 6.64908e-017 -1.65656e-018
2.00569e-029 -6.60269e-030 -1.18143e-031
-0.0212313 -0.131113 0.00195781
2.18583e-017 1.1867e-016 -2.56115e-018
-0.184251 -0.29563 0.00834611
1.44965e-030 2.02593e-030 -1.14964e-031
6.83206e-031 1.09577e-030 -5.63156e-032
5.12894e-031 8.91398e-031 -4.73799e-032
-0.113136 -0.170233 0.00974419
-0.103354 -0.16511 0.00851981
-0.100277 -0.169982 0.00884718
-5.15532e-017 -7.77366e-017 5.84118e-018
-3.23173e-016 -5.12654e-016 3.84181e-017
-1.98072e-016 -3.3267e-016 2.34371e-017
-1.32284e-031 -4.09139e-030 1.842e-031
-2.08927e-031 -1.22389e-029 5.87916e-031
-6.31617e-031 -2.0625e-029 1.178e-030
0.0101544 0.415273 -0.0155329
-3.65507e-018 -1.72991e-016 8.30167e-018
-5.88083e-019 -1.94833e-017 1.04504e-018
0.0065702 0.252108 -0.0100578
9.14617e-019 3.74168e-017 -2.14247e-018
0.0061672 0.31808 -0.0151071
0.00910627 0.306685 -0.016544
-5.54261e-029 -5.77183e-032 1.23633e-030
-5.82156e-029 3.7485e-031 6.23462e-031
0.480573 -0.011505 0.000130943
2.52713e-017 3.64495e-020 -6.34333e-019
-2.74907e-017 1.54602e-019 6.18038e-019
0.383826 -0.00312594 -0.00817878
-6.24878e-017 5.40208e-019 6.12167e-019
0.420221 -0.00181344 -0.00590668
0.370278 -0.00551618 -0.00330725
5.95023e-020 9.0266e-019 4.47708e-020
0.00715676 0.401557 0.0164308
-2.12356e-030 -5.94642e-029 -2.08674e-030
0.00821508 0.219514 0.0106723
-4.28907e-018 -7.14666e-017 -9.66478e-018
0.0195635 0.389219 0.00877582
0.00752707 0.188085 0.0125285
0.0147567 0.580171 0.00810035
0.0157065 0.380743 0.0139796
0.0202565 -0.0574848 -0.0512292
0.0192623 -0.0110291 -0.033811
-0.128919 -0.209444 -0.0354776
-0.135556 -0.100865 -0.0471974
0.0179918 -0.0449984 -0.0471386
-0.0618969 -0.160808 -0.0466591
-0.0626907 -0.10368 -0.0563516
-0.0454558 -0.0933774 -0.0320561
-0.0513595 -0.0538248 -0.0409849
-0.126387 -0.158616 -0.041882
-0.00171347 0.367289 0.0170607
0.00689026 0.41224 0.0172863
0.00721377 0.227698 0.013792
0.0090134 0.571558 0.0103806
0.000649919 0.668619 -0.033136
-0.0157944 0.656782 -0.0188633
-0.0173036 0.54669 -0.0347531
-0.000611902 0.747376 -0.0477987
-0.00823763 0.710919 -0.0265415
-0.00974748 0.665192 -0.0368462
0.000352311 0.70918 -0.0412732
-0.0187031 0.645649 -0.027909
-0.0102461 0.745564 -0.0308678
-0.0128314 0.681807 -0.0426637
1.78359e-017 5.38443e-017 3.76008e-018
5.69267e-017 1.41186e-018 9.73586e-020
0.401667 0.439081 -0.0211688
0.302083 0.107279 -0.025934
1.3596e-029 3.6668e-029 4.14624e-029
0.265801 0.292899 -0.0147438
0.201732 0.112112 -0.0179672
0.299522 0.167833 -0.0169179
0.231675 0.0572898 -0.0124488
0.38502 0.249917 -0.0291161
8.06715e-019 2.11821e-017 1.64228e-018
0.00199023 0.209911 0.00805358
1.89247e-031 -1.3328e-029 -4.78402e-031
-0.00166709 0.156167 0.00228669
0.00231412 0.100176 0.00571148
1.34668e-018 3.35145e-017 4.47607e-018
0.000570524 0.0895606 0.00313591
-5.24133e-005 0.0999994 0.00532328
-0.000663711 0.186902 0.00435984
-0.00105986 0.078496 0.00272751
6.20559e-031 3.35587e-030 -7.01658e-032
-0.0414967 -0.322626 0.00195419
5.77326e-031 1.07617e-029 -1.03112e-031
9.90783e-031 4.90734e-030 -8.78037e-032
-0.0278713 -0.190433 0.00367557
-2.86283e-017 -2.43184e-016 5.45366e-018
2.23098e-029 -4.85822e-030 1.55555e-029
-0.0179965 -0.184259 0.00208677
-0.0258394 -0.176792 0.00175764
-2.29173e-017 -1.98265e-016 2.84617e-018
0.516896 -0.000285394 -0.000178856
-2.02739e-029 2.54878e-032 -4.41543e-033
-2.10796e-029 1.33397e-032 4.11975e-033
-3.59081e-029 4.93682e-032 6.53002e-033
0.347327 0.00013546 -8.7237e-005
0.348947 -0.00013266 -0.000230034
0.346884 -0.000302434 6.0907e-005
-1.94434e-016 -6.46136e-020 1.01182e-019
1.28789e-029 4.27926e-021 -1.73084e-029
2.53671e-017 -1.69583e-020 -4.62232e-021
0.201861 0.744388 -0.0467232
-0.0111132 0.790405 -0.0292161
-0.0169918 0.926739 -0.0901616
0.0361092 0.707507 -0.00570742
0.0921128 0.89281 -0.0539075
0.0691195 0.877654 -0.0778234
0.136408 0.836137 -0.0402584
-0.0174893 0.971674 -0.0674323
0.0525231 0.809008 -0.01994
0.0435136 0.975538 -0.0585092
-7.5977e-029 1.08654e-031 2.12955e-032
-4.47303e-029 8.44727e-032 8.62315e-032
-5.55486e-029 4.43773e-031 -5.24414e-032
0.47271 -0.00385865 0.000155077
3.90392e-019 1.05388e-019 -6.31437e-022
3.84445e-019 -2.2449e-020 -4.71184e-022
0.373097 5.0035e-005 -0.00126283
9.07575e-019 -2.05182e-022 3.45009e-030
0.333071 0.000531616 -0.000987372
0.379144 -0.00256852 0.000708084
8.22652e-030 4.79984e-030 -2.51902e-031
-0.394475 -0.240321 0.011755
2.80107e-030 1.66421e-030 -1.0471e-031
-0.268632 -0.172558 0.0101919
-0.260633 -0.13967 0.00816538
5.73942e-016 3.8727e-016 -2.92834e-017
-0.451911 -0.228896 0.0102503
-0.23755 -0.156063 0.0114484
-0.250271 -0.137804 0.00815742
-0.840983 0.000947912 0.00603148
1.7992e-028 -2.34745e-031 -2.64345e-031
1.33692e-029 -8.74099e-032 -1.6719e-031
-0.839921 0.00521178 0.00298621
-0.556529 0.00279122 0.00282085
-0.50119 -0.000362313 0.00637512
-0.929851 0.00411517 0.00362823
-2.31004e-029 3.27675e-029 6.09695e-029
-0.473329 0.00440392 0.00198008
-0.505786 0.00647588 0.00357564
-3.61686e-029 3.13584e-031 1.83776e-031
-1.32437e-029 1.82074e-031 1.49529e-031
-2.0461e-029 -9.05178e-031 -9.94267e-033
-4.55056e-017 1.95044e-018 3.11325e-019
-1.1776e-018 1.64764e-020 3.45404e-020
0.297288 -0.00205319 -0.00129959
-1.61502e-017 3.87884e-019 5.51027e-019
0.274387 -0.00504141 -0.00220788
0.283753 0.00474579 -0.0102089
-7.9378e-029 1.30859e-030 -3.01056e-031
0.381329 -0.00638508 0.00070699
0.319082 -0.00976808 0.00214453
0.345653 -0.00696495 0.000834566
0.530662 -0.00836177 0.000116551
0.548411 -0.00563111 -8.59102e-005
0.482983 -0.0104255 -0.000468254
-1.73395e-029 -2.20668e-031 2.99423e-032
-3.25599e-029 3.97926e-031 -2.02795e-032
5.35986e-017 -2.49456e-018 -2.96472e-019
4.68808e-017 -2.56039e-018 -4.47306e-019
0.278565 -0.00244603 -0.00074593
4.19967e-018 -2.04103e-019 -4.83894e-020
0.2864 -0.00349545 -0.00278219
-6.07465e-029 2.56958e-031 2.46869e-031
0.472361 0.00157575 -0.000704446
-4.04072e-029 1.43162e-031 1.04566e-031
0.289099 -0.00154778 -0.000825632
-9.73778e-017 1.62681e-019 6.98224e-019
0.370053 -0.0030622 -0.00186825
0.300743 -0.000110858 -0.00078044
0.4952 -0.00158944 -0.000799799
0.317742 0.000606713 -0.00218217
-1.6245e-029 1.22798e-031 -1.30829e-031
-4.78592e-029 7.18023e-033 -3.12491e-031
-5.57335e-029 3.03291e-031 -2.69442e-031
3.33288e-017 -5.27132e-019 8.29074e-019
-3.58578e-017 6.07126e-019 -7.95006e-019
0.292233 -0.00385808 0.0057342
-2.34238e-017 3.2524e-019 -3.84853e-019
0.303912 -0.00292564 0.00386332
0.303661 -0.00332242 0.00288534
1.37581e-030 -8.02332e-030 4.3985e-031
-0.18039 0.11741 -0.0216369
1.90355e-030 -3.67851e-030 5.62877e-031
0.0750709 0.217369 -0.0289885
-0.059997 0.0856919 -0.0056549
-1.36502e-017 6.97362e-018 2.0213e-020
0.00882204 0.137799 -0.00697303
-0.0681074 0.0435114 -0.00511619
-0.068635 0.180838 -0.0235542
-0.00390555 0.0772709 -0.00787044
-6.54637e-030 -3.63373e-030 -8.26166e-031
-5.27598e-029 -7.24324e-030 -1.10343e-030
-8.96868e-030 -1.95053e-029 2.57116e-031
0.204865 0.0453853 0.0362204
0.243209 0.0878989 0.0219743
0.256199 0.198307 0.0516549
2.76989e-030 5.13726e-029 -3.17579e-029
5.60505e-017 5.32967e-017 1.30261e-017
-6.97126e-017 -4.52675e-017 -1.35102e-017
-2.12648e-029 -1.97081e-031 6.4644e-032
1.45158e-029 3.82049e-019 -6.77243e-029
6.21542e-017 -1.59524e-018 -4.86406e-020
0.309045 -0.000106194 0.00128263
-0.0939163 -0.265994 0.00282983
1.58911e-030 3.2241e-030 -5.28872e-032
-0.152859 -0.264543 -0.0045095
3.53596e-030 7.95114e-030 4.69948e-032
-0.0602375 -0.138192 0.00369543
-0.127441 -0.274005 -0.000659312
-0.0606547 -0.146274 0.00229222
-0.0841079 -0.15261 0.00169635
9.95111e-018 1.96347e-017 -4.71281e-019
-0.0735213 -0.139878 -0.000105513
-0.288161 -0.325459 -0.0315872
-0.269075 -0.486879 -0.0342414
-0.118792 -0.184486 -0.015965
-0.221626 -0.281983 -0.0387656
-0.287118 -0.416857 -0.0336893
-0.198107 -0.273269 -0.025678
-0.224982 -0.36863 -0.0417599
-0.133772 -0.207091 -0.0226465
-0.212879 -0.364343 -0.030544
0.470638 0.00160932 8.46884e-005
-9.56319e-029 -2.62307e-031 3.45395e-031
-3.92088e-029 -1.84553e-031 5.26761e-032
0.483788 0.00210305 -0.000743947
0.307024 0.0024545 -0.000899508
0.290142 0.00241381 0.000644217
0.490752 0.00258533 -0.00106808
4.17837e-029 -8.25866e-030 -1.03761e-028
0.40163 -0.00144698 -0.00158973
0.353205 -0.000374481 -0.000336848
-1.71741e-029 2.50962e-032 1.606e-032
-4.55141e-029 1.31924e-032 -6.7593e-033
-8.49742e-029 4.40756e-032 4.93154e-032
1.30583e-029 4.68436e-029 8.25476e-029
0.294649 -0.000461573 -0.000207975
6.39954e-017 3.1765e-019 -3.41078e-020
0.322962 0.000663192 0.000445008
-3.02976e-017 -1.00828e-019 2.95635e-020
0.294744 -7.71454e-005 -0.000409252
-2.57298e-029 4.66203e-032 -3.06066e-032
-4.98994e-029 5.42955e-032 -1.07375e-031
0.512627 -0.000581389 0.000267012
-8.62173e-029 1.16606e-031 -2.08974e-031
8.38478e-017 -2.09254e-019 4.16232e-019
0.386938 -0.000885679 0.000775913
-6.61419e-017 3.72582e-019 -1.68575e-019
0.397676 -0.000723464 0.00198014
3.14137e-017 5.69059e-020 2.07917e-019
0.377279 -0.00226608 0.000652083
0.469724 0.00114925 -0.000621565
-9.54301e-029 4.01755e-032 9.77265e-032
0.539358 8.6897e-005 -7.07547e-005
0.344316 0.000249891 -0.00034585
0.472693 0.0019901 0.000424438
0.376389 -0.0015521 0.00111191
0.545998 0.00197078 -0.000950162
0.383028 0.000804261 -0.00034384
1.26973e-029 1.2162e-031 -9.99767e-032
-0.347466 -0.00529416 0.00475528
8.41079e-017 9.13156e-019 -5.24793e-018
-0.462658 -0.00486183 0.00487708
-0.754972 -0.0106586 0.00460506
1.22739e-030 -5.93892e-029 3.98101e-030
1.42627e-031 -1.09663e-028 7.185e-030
-0.0098033 0.694451 -0.0448517
0.000128281 0.704364 -0.0456328
-0.012187 0.487498 -0.0332185
1.39755e-018 -9.58931e-017 6.50661e-018
-0.00808791 0.583369 -0.0382721
0.00062214 0.51654 -0.00411913
0.0119482 0.278428 0.00189513
0.00408155 0.521916 -0.0103125
0.000100534 0.354514 -0.00111908
0.00907202 0.424685 -0.000355304
0.00326548 0.52118 -0.00741557
0.000298485 0.43966 -0.00155991
0.00829183 0.416211 -0.00371988
0.00510905 0.343046 0.000249653
0.00182423 0.454015 -0.0045441
0.00721727 0.267959 0.00584196
0.00181303 0.376736 0.00464303
0.000909071 0.285849 0.00266451
8.334e-029 1.54845e-030 6.69986e-031
1.4011e-028 2.8178e-030 9.81629e-031
2.50244e-029 2.91295e-031 1.22006e-031
-0.631202 -0.00809254 -0.00371292
-0.595142 -0.00887162 -0.00594605
-0.594833 -0.0100191 -0.00361216
-1.35955e-016 3.43909e-019 -1.9149e-018
-1.60601e-016 -2.95719e-018 -1.37519e-018
-1.52594e-016 -3.13018e-018 -1.87105e-018
7.25909e-031 2.75118e-030 -6.04096e-032
-0.164736 -0.492848 -0.0042064
4.05878e-030 2.02552e-029 1.33652e-031
1.52712e-030 7.4963e-030 -1.35146e-031
-0.0952972 -0.359061 0.00659276
4.40125e-030 -4.14683e-030 -2.66023e-029
-4.30645e-017 -2.11285e-016 7.44459e-018
-0.0852974 -0.361787 0.000975896