# vtk DataFile Version 2.0 
output.vtk, Created by Freefem++, via gregorio
ASCII
DATASET UNSTRUCTURED_GRID
POINTS 7451 double
-3.79965 2.23652 0.040848
-4.13429 2.05574 0.276253
-4.09122 2.24524 0.070091
-4.01836 2.27766 0.330071
-3.96697 2.14613 0.158551
-3.94543 2.24088 0.0554695
-3.90901 2.25709 0.185459
-4.11275 2.15049 0.173172
-4.07633 2.1667 0.303162
-4.05479 2.26145 0.200081
-4.81817 0.732763 -0.840268
-4.76136 0.37264 -0.736193
-5.12328 0.495929 -0.550642
-4.73872 0.559667 -0.434419
-4.78977 0.552702 -0.788231
-4.97072 0.614346 -0.695455
-4.77845 0.646215 -0.637344
-4.94232 0.434285 -0.643417
-4.75004 0.466153 -0.585306
-4.931 0.527798 -0.49253
-7.58244 -0.891248 -0.453516
-8 -0.559587 0.124298
-7.26059 -0.264226 0.250847
-7.58828 -0.999993 0.00381
-7.79122 -0.725418 -0.164609
-7.42152 -0.577737 -0.101334
-7.58536 -0.94562 -0.224853
-7.6303 -0.411906 0.187573
-7.79414 -0.77979 0.064054
-7.42444 -0.632109 0.127328
-5.46564 0.048234 0.998836
-5.51396 -0.351144 0.936321
-5.02851 -0.125769 0.598961
-5.56665 -0.148801 0.504295
-5.4898 -0.151455 0.967578
-5.24708 -0.0387675 0.798898
-5.51614 -0.0502835 0.751565
-5.27124 -0.238457 0.767641
-5.5403 -0.249972 0.720308
-5.29758 -0.137285 0.551628
-4.20269 -2.80441 0.102764
-3.63085 -2.57461 -0.287529
-4.13183 -2.29387 0.255347
-4.14432 -2.47254 -0.273935
-3.91677 -2.68951 -0.0923825
-4.16726 -2.54914 0.179055
-4.1735 -2.63848 -0.0855855
-3.88134 -2.43424 -0.016091
-3.88759 -2.52358 -0.280732
-4.13807 -2.38321 -0.009294
-6.25062 -0.085247 0.575431
-6.51584 -0.423084 -0.15939
-6.46019 0.447486 0.293263
-6.75561 -0.174737 0.413139
-6.38323 -0.254165 0.20802
-6.35541 0.181119 0.434347
-6.88822 -0.343655 0.0457285
-6.86039 0.09163 0.272055
-6.48801 0.012201 0.0669365
-4.88162 0.371746 0.655425
-4.51246 -0.112716 0.623981
-4.65723 0.09269 0.995695
-4.69704 0.129515 0.639703
-4.95507 0.122989 0.627193
-4.76942 0.232218 0.82556
-4.77049 -0.119243 0.611471
-4.58484 -0.010013 0.809838
-4.84287 -0.0165395 0.797328
-3.75099 1.20677 0.090288
-3.64118 0.745776 0.266863
-4.09568 0.790235 0.315934
-3.78936 1.07086 0.69071
-3.69609 0.976272 0.178575
-3.92333 0.998502 0.203111
-3.77017 1.13882 0.390499
-3.86843 0.768006 0.291399
-3.71527 0.908319 0.478787
-3.94252 0.930549 0.503322
-2.18572 0.40145 0.915881
-1.75478 0.245881 0.526965
-1.94554 -0.013967 0.999902
-1.76886 0.356252 0.93439
-1.97025 0.323665 0.721423
-2.06563 0.193741 0.957891
-1.97729 0.378851 0.925135
-1.85016 0.115957 0.763433
-1.76182 0.301067 0.730678
-1.8572 0.171143 0.967146
-5.06116 0.824959 0.710182
-4.88551 0.773989 0.80113
-4.92155 0.772883 0.437198
-5.01596 0.602336 0.857802
-4.97333 0.799474 0.755656
-4.99135 0.798921 0.57369
-5.03856 0.713647 0.783992
-4.90353 0.773436 0.619164
-4.95074 0.688163 0.829466
-4.96876 0.687609 0.6475
-2.34262 2.51752 0.051733
-2.4672 2.85727 -0.311185
-2.29554 2.81673 0.086134
-2.65762 2.74748 0.16058
-2.40491 2.6874 -0.129726
-2.31908 2.66712 0.0689335
-2.50012 2.6325 0.106157
-2.38137 2.837 -0.112526
-2.56241 2.80238 -0.0753025
-2.47658 2.7821 0.123357
-3.50303 -3.76846 -0.636668
-3.49422 -3.29308 -1.15018
-3.31427 -3.71149 -1.25136
-2.90724 -3.34218 -0.858121
-3.49863 -3.53077 -0.893424
-3.40865 -3.73997 -0.944014
-3.20514 -3.55532 -0.747394
-3.40425 -3.50228 -1.20077
-3.20073 -3.31763 -1.00415
-3.11076 -3.52683 -1.05474
-4.0054 2.49156 -0.125899
-3.5956 2.50054 -0.194198
-3.83412 2.54803 0.0159
-3.8005 2.49605 -0.160049
-3.90253 2.36404 -0.0425255
-3.91976 2.5198 -0.0549995
-3.69763 2.36853 -0.076675
-3.71486 2.52428 -0.089149
-3.81689 2.39228 0.028374
-3.73452 -3.68531 -1.05781
-3.52439 -3.6984 -1.15459
-3.61437 -3.4892 -1.104
-3.61877 -3.72688 -0.84724
-6.37864 0.944563 0.328331
-6.25891 0.813305 0.581838
-6.65332 0.772267 0.635298
-6.31878 0.878934 0.455085
-6.41941 0.696025 0.310797
-6.51598 0.858415 0.481815
-6.35955 0.630395 0.43755
-6.45612 0.792786 0.608568
-6.55675 0.609877 0.46428
1.62066 -0.841518 -0.540229
1.89324 0.238579 -0.195511
2.01627 -0.690819 -0.723027
2.25185 -0.211859 0.261412
1.75695 -0.30147 -0.36787
1.81846 -0.766169 -0.631628
1.93625 -0.526689 -0.139408
1.95475 -0.22612 -0.459269
2.07254 0.01336 0.0329505
2.13406 -0.451339 -0.230807
-2.56949 2.06853 0.305158
-2.91403 1.60744 0.564909
-3.02709 2.08175 0.021586
-2.87501 2.07662 0.630995
-2.74176 1.83799 0.435033
-2.79829 2.07514 0.163372
-2.72225 2.07258 0.468077
-2.97056 1.8446 0.293247
-2.89452 1.84203 0.597952
-2.95105 2.07919 0.32629
-5.39985 0.358755 0.933432
-5.34934 0.453264 0.543553
-5.56264 0.558471 0.829524
-5.70805 0.297641 0.954678
-5.37459 0.40601 0.738492
-5.48124 0.458613 0.881478
-5.55395 0.328198 0.944055
-5.45599 0.505868 0.686538
-5.52869 0.375452 0.749116
-5.63535 0.428056 0.892101
-4.17913 0.323834 -0.696515
-4.36183 0.516245 -0.417662
-4.60784 0.019305 -0.528365
-4.46586 0.364911 -0.72315
-4.27048 0.42004 -0.557088
-4.39349 0.17157 -0.61244
-4.3225 0.344372 -0.709832
-4.48483 0.267775 -0.473013
-4.41384 0.440578 -0.570406
-4.53685 0.192108 -0.625757
-5.9377 0.438799 -0.558905
-5.87927 0.529091 -0.848565
-6.25926 0.555743 -0.831354
-6.07929 0.245277 -0.969453
-5.90849 0.483945 -0.703735
-6.09848 0.497271 -0.695129
-6.00849 0.342038 -0.764179
-6.06927 0.542417 -0.839959
-5.97928 0.387184 -0.909009
-6.16928 0.40051 -0.900404
-3.64743 2.72944 0.180305
-3.74077 2.63873 0.0981025
-3.72354 2.48298 0.110576
-3.62151 2.61499 -0.0069465
-3.98168 0.388062 0.141859
-3.76543 0.320245 0.603448
-3.81143 0.566919 0.204361
-3.70331 0.533011 0.435156
-4.03868 0.589149 0.228897
-3.87356 0.354154 0.372653
-3.93055 0.55524 0.459691
-6.17342 0.027823 -0.593282
-6.59748 0.255766 -0.966739
-6.35964 0.547779 -0.240473
-6.21634 0.291783 -0.712318
-6.42837 0.405755 -0.899047
-6.30945 0.551761 -0.535914
-6.38545 0.141794 -0.78001
-6.26653 0.287801 -0.416878
-6.47856 0.401772 -0.603606
-5.98474 0.742767 -0.66955
-5.96122 0.590783 -0.614227
-6.122 0.649255 -0.750452
-5.93201 0.635929 -0.759057
-5.86659 0.345457 -0.129882
-5.96054 -0.099592 -0.035866
-6.02 0.18664 -0.361582
-6.11312 0.446618 -0.185177
-5.91357 0.122933 -0.082874
-6.06698 -0.0358845 -0.314574
-6.16009 0.224094 -0.13817
-1.10421 0.363269 -0.931684
-0.773878 0.737644 -0.67519
-0.520452 0.269543 -0.962988
-0.384634 0.008888 -0.353445
-0.939043 0.550457 -0.803437
-0.812329 0.316406 -0.947336
-0.74442 0.186079 -0.642564
-0.647165 0.503594 -0.819089
-0.579256 0.373266 -0.514317
-0.452543 0.139215 -0.658216
-2.85287 -3.00249 -1.21636
-3.23054 -2.92385 -1.196
-3.06719 -3.3306 -1.25351
-2.88006 -3.17233 -1.03724
-3.06889 -3.13301 -1.02706
-2.98722 -3.33639 -1.05581
-3.0417 -2.96317 -1.20618
-2.96003 -3.16654 -1.23493
-3.14886 -3.12722 -1.22475
-3.38618 -2.05134 -0.098565
-2.37808 -2.56123 -0.134541
-2.49252 -2.47812 0.422472
-2.41131 -1.89586 0.044632
-2.88213 -2.30628 -0.116553
-2.93935 -2.26473 0.161954
-2.89875 -1.9736 -0.0269665
-2.4353 -2.51967 0.143966
-2.39469 -2.22855 -0.0449545
-2.45192 -2.18699 0.233552
-1.85713 -0.413967 0.42138
-1.65927 -0.390905 0.920431
-1.2503 -0.077569 0.384148
-1.80595 -0.084043 0.474172
-1.70702 -0.072512 0.723698
-1.50254 0.084156 0.455557
-1.7582 -0.402436 0.670905
-1.55371 -0.245768 0.402764
-1.45478 -0.234237 0.652289
-2.09043 2.55218 0.167395
-2.0659 2.66009 -0.048555
-2.19298 2.68445 0.126765
-2.18072 2.73841 0.0187895
-2.07816 2.60614 0.05942
-2.21652 2.53485 0.109564
-2.20426 2.58881 0.001589
-4.01665 2.44382 0.136481
-3.97233 2.67361 0.084512
-3.92539 2.49592 0.0761905
-3.99449 2.55872 0.110496
-4.01103 2.46769 0.005291
-3.90323 2.61082 0.050206
-3.98887 2.58259 -0.0206935
-3.92754 1.80484 -0.220103
-4.28096 1.83407 -0.225431
-4.13592 1.88983 -0.461486
-4.146 2.03152 -0.278406
-4.10425 1.81945 -0.222767
-4.03173 1.84734 -0.340795
-4.03677 1.91818 -0.249254
-4.20844 1.86195 -0.343458
-4.21348 1.9328 -0.251918
-4.14096 1.96068 -0.369946
-4.04038 -5 0.949212
-3.62468 -5 1.26221
-3.84559 -4.54287 1.07336
-3.71487 -5 0.728948
-3.83253 -5 1.10571
-3.94299 -4.77144 1.01129
-3.87763 -5 0.83908
-3.73513 -4.77144 1.16779
-3.66977 -5 0.99558
-3.78023 -4.77144 0.901156
-1.37334 0.812082 -0.583544
-0.975724 0.961208 -0.275823
-1.19336 -0.166381 -0.273753
-1.17453 0.886645 -0.429683
-1.07361 0.774863 -0.629367
-1.28335 0.32285 -0.428648
-0.874801 0.849426 -0.475506
-1.08454 0.397413 -0.274788
-0.983618 0.285631 -0.474471
-3.83515 -1.82017 -0.741539
-3.34976 -1.58414 -0.592596
-3.50394 -2.07825 -1.02313
-3.59245 -1.70215 -0.667067
-3.66955 -1.94921 -0.882335
-3.61067 -1.93575 -0.420052
-3.42685 -1.83119 -0.807863
-3.36797 -1.81774 -0.345581
-3.44506 -2.06479 -0.560848
-2.72946 0.769161 0.094533
-2.75119 0.681139 -0.326037
-2.98528 1.02631 -0.281501
-3.08113 0.734324 -0.34324
-2.74032 0.72515 -0.115752
-2.85737 0.897737 -0.093484
-2.90529 0.751742 -0.124353
-2.86823 0.853726 -0.303769
-2.91616 0.707731 -0.334639
-3.03321 0.880319 -0.31237
-2.94023 -2.47675 -0.674772
-3.14499 -2.03044 -0.633684
-3.22209 -2.2775 -0.848951
-3.16321 -2.26404 -0.386669
-3.03914 -4.25341 0.579285
-2.64287 -3.80807 0.20828
-2.47531 -4.18593 0.714333
-2.97264 -3.41482 0.618231
-2.84101 -4.03074 0.393783
-2.75723 -4.21967 0.646809
-3.00589 -3.83412 0.598758
-2.55909 -3.997 0.461307
-2.80776 -3.61144 0.413255
-2.72397 -3.80037 0.666282
-2.39684 -0.595487 -0.803365
-1.98884 -0.54749 -0.836812
-2.24172 -0.466498 -0.098067
-2.21295 -0.01831 -0.514797
-2.19284 -0.571489 -0.820088
-2.31928 -0.530992 -0.450716
-2.3049 -0.306899 -0.659081
-2.11528 -0.506994 -0.46744
-2.1009 -0.2829 -0.675804
-2.22734 -0.242404 -0.306432
-3.36239 -4.55484 -1.31864
-3.11171 -4.25429 -0.873787
-2.86199 -4.55394 -1.36046
-2.79118 -5 -0.96439
-3.23705 -4.40456 -1.09621
-3.11219 -4.55439 -1.33955
-3.07678 -4.77742 -1.14151
-2.98685 -4.40411 -1.11712
-2.95144 -4.62714 -0.919088
-2.82658 -4.77697 -1.16243
-3.88203 2.65205 -0.416886
-3.48121 2.84727 -0.340672
-3.82273 3 -0.474998
-3.72541 2.76868 -0.627028
-3.68162 2.74966 -0.378779
-3.85238 2.82603 -0.445942
-3.80372 2.71037 -0.521957
-3.65197 2.92364 -0.407835
-3.60331 2.80798 -0.48385
-3.77407 2.88434 -0.551013
[...]
POINT_DATA 7451
 
FIELD FieldData 2
velocity 3 7451 double
-0.122358 -0.347421 0.0095226
1.56282e-030 3.52866e-030 -1.94764e-031
4.53344e-031 1.23655e-030 -5.75308e-032
1.30698e-030 3.51198e-030 -1.78086e-031
-0.0833428 -0.203499 0.0114196
-0.072582 -0.199715 0.00924382
-0.0802431 -0.232167 0.0122706
-1.87339e-018 -4.53791e-018 3.1443e-019
5.66431e-018 1.40977e-017 -1.10373e-018
1.90943e-029 -8.19452e-030 -4.45227e-030
9.0504e-030 3.01604e-030 -2.04981e-031
-0.411296 -0.109317 0.00106475
-0.627218 -0.142638 0.00746894
-0.707101 -0.230931 0.00614806
-0.22727 -0.0769822 0.00704543
-0.306619 -0.0932171 0.00986712
-0.405796 -0.146985 0.00938926
-0.535518 -0.134371 0.00699709
-0.59321 -0.174671 0.00533989
-0.676729 -0.192752 0.00844628
9.7149e-029 -2.99998e-031 2.80238e-032
-0.848387 0.00732104 -0.000626375
-1.10642 4.46948e-005 -0.000602932
5.60979e-029 -2.25797e-031 5.39736e-032
-0.552593 0.00343491 7.45186e-005
-0.836626 5.79044e-006 -0.00253431
-1.34499e-016 2.49701e-019 -3.15944e-019
-1.00892 0.00128412 -7.58079e-005
-0.479841 0.00634976 -0.000802059
-0.742899 0.00192194 -0.000178017
3.30562e-029 3.4204e-030 5.906e-032
2.17635e-029 1.39154e-030 2.83408e-031
-0.701138 -0.104934 -0.0137552
-0.88606 -0.0622973 -0.00508343
-1.05863e-016 -6.67299e-018 -1.46389e-018
-0.423292 -0.0483208 -0.00392372
-0.526976 -0.0336209 -0.00350231
-0.404042 -0.0314044 -0.00760296
-0.506101 -0.0233056 -0.00491409
-0.799245 -0.0859118 -0.00849684
-4.2991e-030 -6.57897e-029 1.88636e-030
0.026377 0.426984 0.00311794
-4.68927e-030 -7.79746e-029 2.40714e-030
-8.23293e-031 -9.77371e-030 3.74064e-033
0.023817 0.291069 -0.0035153
-6.37539e-017 -5.86771e-016 1.79231e-017
-4.02234e-018 -4.0627e-017 5.64731e-019
0.0269991 0.345116 -0.00550397
0.0221691 0.25369 0.000469534
-5.78584e-017 -6.19618e-016 1.06028e-017
-0.832039 -0.0163487 -0.0023983
-1.00486 -0.00961785 -0.00223311
-0.904675 -0.0129807 -0.000917455
-1.01208 -0.00262209 -0.000990594
-1.1338 -0.0173202 -0.00317681
-0.986467 -0.0172165 -0.00229041
-1.11769 -0.00468322 -0.0038567
-1.17179 -0.00250846 -0.000478003
-1.27198 -0.0170137 -0.00155165
-0.564305 -0.186695 0.00461525
-0.570857 -0.102033 -0.0202657
1.88132e-029 5.15912e-030 1.99017e-031
-0.624454 -0.165498 -0.00820853
-0.689905 -0.154576 -0.00385312
-0.309922 -0.109058 0.00318872
-0.63574 -0.112092 -0.018904
-0.34247 -0.0933354 -0.0102705
-0.390464 -0.0842919 -0.00827189
-0.430217 -0.453486 -0.0223534
-0.466751 -0.264205 -0.0493907
-0.606215 -0.335739 -0.0144533
-0.239484 -0.300969 -0.000369103
-0.465258 -0.384603 -0.0388148
-0.51984 -0.397245 -0.0198339
-0.39393 -0.416964 -0.0157088
-0.554149 -0.308847 -0.031788
-0.386902 -0.32735 -0.0237807
-0.423188 -0.334443 -0.00724286
-1.72416e-029 -6.43999e-030 1.12708e-030
0.348811 0.0521431 -0.0062654
-2.0718e-029 -6.15519e-030 -3.7935e-031
-4.38079e-030 -2.24147e-031 2.1919e-032
0.188139 0.029313 -0.00584566
6.03058e-017 5.22909e-018 2.32254e-018
3.22081e-018 2.16058e-019 -2.37532e-020
0.213271 0.0170144 -0.00126023
0.199059 0.0110331 0.00114362
-6.92551e-017 -5.75173e-019 -8.77924e-019
2.50014e-017 1.16283e-017 -7.05685e-019
2.77146e-030 1.26446e-030 -5.37715e-032
-0.508962 -0.210505 0.00890011
2.96057e-030 1.21108e-030 -5.59301e-032
1.25058e-017 6.27077e-018 -3.93783e-019
-0.286763 -0.126821 0.00672767
9.83947e-017 4.42223e-017 -3.61009e-018
-0.286892 -0.138475 0.00777256
1.52441e-016 7.80717e-017 -3.44873e-018
-0.316428 -0.135155 0.00585159
-0.033181 -0.236376 -0.0135962
-0.0203988 -0.2513 -0.00884318
-0.0125845 -0.23582 -0.00698199
-0.0522567 -0.498625 -0.0152402
-0.0289599 -0.266512 -0.0112138
-0.0231414 -0.237199 -0.010463
-0.0455455 -0.37825 -0.0163525
-0.0187619 -0.26903 -0.00948065
-0.0381119 -0.394655 -0.0124366
-0.0320846 -0.382763 -0.0117432
0.0113268 0.270226 0.00817949
-6.54573e-031 -2.08331e-029 -1.04988e-030
-3.27286e-031 -1.59485e-029 -9.01616e-031
-0.00174472 0.226607 0.0128686
0.00640196 0.144717 0.00806883
0.00555007 0.142016 0.00808764
0.0047643 0.276354 0.0117544
2.21983e-029 2.14653e-030 6.44746e-029
0.00225512 0.13543 0.00917065
0.00113323 0.11672 0.00828286
9.66026e-031 3.55989e-030 -1.00312e-031
-0.0905979 -0.370996 0.00389306
-0.0484898 -0.229528 0.00499609
-0.058054 -0.233237 0.00627973
-0.0603065 -0.194145 0.00618288
-0.0276235 -0.117232 0.00341115
-0.110364 -0.371809 0.00582772
-0.0760711 -0.329587 0.00567945
-0.0823933 -0.287104 0.0075803
-2.6388e-031 -4.67363e-030 -2.28253e-031
-3.63612e-018 -6.91473e-017 -5.12297e-018
3.54875e-018 6.17982e-017 4.48626e-018
0.00768433 0.137073 0.00666899
1.03121e-029 1.76119e-031 2.15267e-033
1.36624e-029 2.28195e-031 1.60781e-032
1.78236e-029 1.89701e-031 4.36316e-032
6.95853e-017 1.53871e-018 8.45994e-020
-0.521004 -0.0128183 -0.000504779
-4.97812e-030 -4.51794e-029 -2.28209e-029
-0.511489 -0.00650075 -0.000659282
-1.81817e-017 -1.84304e-019 1.71874e-019
-0.520525 -0.00586563 -0.00103019
-1.50488e-028 3.79537e-031 -7.25073e-032
0.485773 0.000574356 0.000720042
-5.56496e-029 3.82349e-032 -1.31015e-031
0.473267 -0.00219171 0.00130547
0.416491 -0.00126481 0.000284045
-6.68065e-017 3.46881e-020 -3.04461e-019
0.375874 -0.0002206 0.00135954
0.394031 0.000704113 0.000859329
0.535993 -0.00104575 0.0016333
0.397416 -0.00115391 0.00173893
-0.0804117 -0.330027 -0.0289039
-0.118779 -0.343893 -0.0342026
-0.170841 -0.534007 -0.0261754
-0.0910603 -0.413243 -0.021469
-0.107125 -0.364277 -0.0346465
-0.134744 -0.482504 -0.0337599
-0.0938855 -0.40223 -0.0297231
-0.178519 -0.518827 -0.0378917
-0.108441 -0.385879 -0.0283452
-0.152232 -0.552229 -0.0314069
3.11931e-030 4.12345e-031 -6.85528e-032
-0.669389 -0.123826 0.0100167
6.74556e-030 5.41001e-031 -1.18596e-031
2.99432e-029 2.00011e-030 -1.53808e-031
-0.377198 -0.0499827 0.0102998
-9.80352e-017 -7.76906e-018 3.41883e-018
1.36403e-016 6.19313e-018 -3.96374e-018
-0.36478 -0.0442067 0.0089119
-0.380711 -0.0311457 0.00700672
-2.2241e-017 -7.05869e-019 7.78144e-019
-0.403918 -0.101816 -0.0145588
-0.68712 -0.233556 -0.0114235
-0.729257 -0.113016 -0.00680485
-0.409242 -0.118087 -0.0051165
-0.567319 -0.170127 -0.0140851
-0.58313 -0.118412 -0.0114892
-0.411177 -0.114234 -0.00960904
-0.74377 -0.17511 -0.0115533
-0.579009 -0.181743 -0.00660911
-0.594022 -0.127569 -0.00635555
-0.627797 -0.0135848 0.00193206
3.35587e-030 3.94019e-032 -6.92768e-033
2.98901e-029 3.64683e-031 -1.53654e-031
1.37626e-029 1.85443e-031 -2.78901e-032
-0.338356 -0.00336123 0.00129658
-0.335887 -0.00629743 0.00283614
-0.366472 -0.00424424 0.00202885
-2.40038e-016 -1.90931e-018 2.10944e-018
-1.73607e-016 -2.40676e-019 1.04778e-018
-1.10556e-029 -2.14377e-029 4.81256e-029
-0.0587429 -0.397272 0.0054707
-0.0557121 -0.320671 0.00565419
-0.0866021 -0.369386 0.00671757
-0.0793323 -0.413019 0.00417827
-0.741965 -0.15284 -0.0438775
-0.409146 -0.0389931 -0.0206759
-0.604572 -0.203974 -0.0493855
-0.464167 -0.144668 -0.0396595
-0.69525 -0.262818 -0.031168
-0.615101 -0.0962895 -0.036957
-0.547406 -0.209136 -0.0223592
-0.81247 -0.0103533 0.000548513
-3.67269e-017 4.33123e-020 8.27265e-020
-0.812872 -0.00913333 0.0035091
-0.507961 -0.00735308 0.00301213
-2.50421e-029 -3.06253e-029 6.04065e-029
-0.508036 -0.00582591 0.00456462
-0.461517 -0.00798081 0.00171815
-0.943748 -0.0126752 0.00306033
-0.591707 -0.00286986 0.00303471
5.42342e-030 9.4837e-032 -8.47043e-033
-0.342947 -0.00644621 0.00203062
-7.74196e-017 -1.26253e-018 1.73228e-018
-1.02248e-016 -8.3908e-019 6.57112e-019
-1.11522 -0.0514727 0.00287293
-1.24965 -0.0418698 -0.00320758
-1.06182 -0.0266839 0.000697078
-0.980366 -0.0225009 0.00349141
-1.24763 -0.050795 0.00021602
-1.14041 -0.0263552 -0.00144685
-1.18884 -0.0274949 0.00147146
1.98646e-017 -1.53308e-019 -3.14493e-019
-4.90911e-029 4.73102e-031 4.78568e-031
-1.82011e-029 5.48525e-032 9.51881e-032
0.476897 -0.00459409 -0.000873433
-3.05603e-017 2.81904e-019 4.4467e-019
1.35217e-029 -3.24588e-029 9.81181e-029
0.291264 -0.00295501 -0.00292564
-3.14885e-017 1.04265e-019 3.21391e-019
0.325922 -0.00365216 -0.00232743
0.294344 9.08305e-005 -0.00200635
7.7743e-032 -7.25318e-030 -5.65851e-031
-3.26662e-031 -2.23209e-029 -1.34014e-030
-6.20394e-033 -2.68306e-030 -2.01145e-031
-0.00126585 0.118964 0.00924815
0.00199689 0.125924 0.0100218
4.25972e-005 0.1148 0.00807334
-7.12053e-019 -5.84354e-017 -7.06797e-018
-7.7914e-020 2.67475e-017 2.41744e-018
-1.29312e-018 -5.65862e-017 2.58923e-018
0.0217445 0.706787 -0.00675893
-0.0254997 0.512375 -0.00123087
-0.0279362 0.720608 -0.0358872
-0.0281038 0.660272 -0.017742
-0.00728607 0.750517 -0.00381952
-0.00381055 0.908249 -0.0248877
-0.00651677 0.854628 -0.0149596
-0.0280822 0.669542 -0.0153643
-0.0269746 0.587704 -0.00690652
-0.0294455 0.720286 -0.028308
0.366819 0.162038 0.0240303
-2.66121e-029 -1.71565e-030 -1.78795e-031
0.456447 0.0152533 -0.00241259
0.408807 0.105777 -0.000186291
0.246455 0.00746725 -0.000858423
0.422751 0.0332935 -0.0018849
0.195537 0.00521233 0.00891771
0.412737 0.0527551 -0.0013676
0.268418 0.000984086 -0.00313893
-1.96236e-018 -2.71258e-017 -1.2096e-018
1.10741e-031 1.25674e-030 6.11507e-032
-0.00756497 -0.120037 -0.00446927
-0.00809181 -0.115012 -0.00397205
-4.15869e-018 -5.20203e-017 -2.19839e-018
-0.0166004 -0.129609 -0.00743829
-0.0152828 -0.121734 -0.00782958
-7.42649e-018 -3.00472e-017 1.12971e-018
2.84369e-031 1.80574e-030 -3.84843e-032
-0.0311866 -0.13326 0.00424966
1.24876e-017 6.63423e-017 -1.63105e-018
2.05195e-029 -6.75263e-030 -1.21462e-031
-0.0211778 -0.130894 0.00192118
2.18104e-017 1.18449e-016 -2.51735e-018
-0.183868 -0.295162 0.00799969
1.48014e-030 2.0692e-030 -1.14388e-031
6.97461e-031 1.11944e-030 -5.64607e-032
5.23482e-031 9.10419e-031 -4.74123e-032
-0.1129 -0.169988 0.00949878
-0.103145 -0.164895 0.00835257
-0.100056 -0.169719 0.00864765
-5.14482e-017 -7.76432e-017 5.74192e-018
-3.22467e-016 -5.11926e-016 3.76941e-017
-1.97651e-016 -3.32237e-016 2.30933e-017
-1.33359e-031 -3.99317e-030 1.6758e-031
-2.05341e-031 -1.1625e-029 5.36481e-031
-6.37265e-031 -1.99638e-029 1.07876e-030
0.0101045 0.404543 -0.0135385
-3.55985e-018 -1.59387e-016 7.4465e-018
-5.80187e-019 -1.81515e-017 9.40243e-019
0.00652371 0.24015 -0.00889386
8.90058e-019 3.43702e-017 -1.93164e-018
0.00598925 0.296162 -0.0134816
0.00898554 0.289275 -0.0148218
-5.67203e-029 -4.48332e-032 1.28179e-030
-5.95796e-029 3.87866e-031 6.4572e-031
0.480537 -0.0116897 7.39196e-005
2.52884e-017 3.27597e-020 -6.42508e-019
-2.75082e-017 1.57728e-019 6.24736e-019
0.383979 -0.00322722 -0.00830047
-6.25322e-017 5.4426e-019 6.17088e-019
0.420433 -0.00188682 -0.00599586
0.370434 -0.00556567 -0.00333926
5.98193e-020 8.94629e-019 4.24101e-020
0.0072291 0.400604 0.0160678
-2.19708e-030 -6.07952e-029 -2.08385e-030
0.00830168 0.218615 0.0103439
-4.34336e-018 -7.15089e-017 -9.21174e-018
0.0197118 0.390197 0.00843129
0.0075923 0.186831 0.0122177
0.0149249 0.58286 0.00796948
0.0158902 0.37998 0.0135162
0.0198765 -0.0552759 -0.0508184
0.0190472 -0.0109055 -0.034081
-0.12888 -0.209031 -0.0356711
-0.135583 -0.100805 -0.0473516
0.0177204 -0.0436823 -0.0472395
-0.0621233 -0.159104 -0.0466936
-0.0629441 -0.101898 -0.056308
-0.0456077 -0.0931831 -0.0322712
-0.0515286 -0.0536891 -0.0411929
-0.126415 -0.158411 -0.0420721
-0.00170915 0.364504 0.0167159
0.00694456 0.410615 0.0168664
0.00728027 0.225478 0.0134878
0.00915309 0.574426 0.0103331
0.000693233 0.671351 -0.028487
-0.0160926 0.677395 -0.0156212
-0.0173745 0.534695 -0.0308357
-0.000701471 0.74389 -0.0422947
-0.00833154 0.725041 -0.0222317
-0.00977999 0.657704 -0.032151
0.000346279 0.70831 -0.0359983
-0.0189279 0.65218 -0.0239252
-0.0104205 0.757036 -0.0263456
-0.0129243 0.672118 -0.037639
1.78117e-017 5.37252e-017 3.7315e-018
5.69184e-017 1.4213e-018 1.08637e-019
0.401771 0.44121 -0.0211103
0.301872 0.106943 -0.0260757
1.39001e-029 3.74972e-029 4.24136e-029
0.265681 0.292816 -0.0149155
0.201533 0.111872 -0.0180415
0.299446 0.167778 -0.0169662
0.231526 0.0571366 -0.0124659
0.384934 0.250385 -0.0292449
7.98686e-019 2.08846e-017 1.62489e-018
0.00199686 0.207849 0.00814956
1.93084e-031 -1.35018e-029 -5.00403e-031
-0.0016734 0.155152 0.00263666
0.0022977 0.0989904 0.00569631
1.31051e-018 3.28314e-017 4.34762e-018
0.000583913 0.0887474 0.00325222
-3.38759e-005 0.0988159 0.00531395
-0.000646073 0.185255 0.00466725
-0.0010437 0.0777379 0.00281512
6.33081e-031 3.42372e-030 -7.12358e-032
-0.0413822 -0.321605 0.00195367
5.89354e-031 1.098e-029 -1.05536e-031
1.01048e-030 5.00417e-030 -8.90028e-032
-0.0277958 -0.189859 0.00366107
-2.85409e-017 -2.42384e-016 5.45437e-018
2.28246e-029 -4.96248e-030 1.59134e-029
-0.0179381 -0.18362 0.00210164
-0.0257642 -0.176158 0.0017479
-2.28415e-017 -1.97509e-016 2.85152e-018
0.516901 -0.00028854 -0.000175454
-2.07505e-029 2.59714e-032 -4.72197e-033
-2.15748e-029 1.37933e-032 4.1286e-033
-3.67504e-029 5.06546e-032 6.49937e-033
0.347504 0.000137172 -8.33992e-005
0.34912 -0.000134519 -0.000228642
0.347055 -0.000301525 6.2014e-005
-1.94588e-016 -6.52471e-020 9.96154e-020
1.3183e-029 3.53994e-021 -1.77059e-029
2.53869e-017 -1.69222e-020 -4.57604e-021
0.201642 0.751982 -0.0457264
-0.0113951 0.795823 -0.0288403
-0.0172245 0.929578 -0.0873984
0.0359993 0.713367 -0.00544635
0.0918721 0.902302 -0.0527812
0.0687863 0.883486 -0.0756277
0.136479 0.844707 -0.0394466
-0.0178071 0.98219 -0.0658049
0.0523407 0.815281 -0.0195691
0.0433011 0.986201 -0.0568315
-7.77493e-029 1.11972e-031 2.31761e-032
-4.57782e-029 8.82751e-032 9.09335e-032
-5.68437e-029 4.55918e-031 -5.14462e-032
0.472817 -0.00387231 0.000120923
3.90671e-019 1.04794e-019 -6.43017e-022
3.8462e-019 -2.2799e-020 -4.75434e-022
0.373247 4.73166e-005 -0.0012774
9.08038e-019 -2.52375e-022 3.52815e-030
0.33323 0.000513338 -0.0010177
0.379282 -0.00258182 0.000699881
8.41336e-030 4.90109e-030 -2.55224e-031
-0.394327 -0.239765 0.0120144
2.86519e-030 1.70109e-030 -1.08022e-031
-0.268563 -0.172287 0.0101958
-0.260642 -0.139507 0.00811823
5.73917e-016 3.87059e-016 -2.92835e-017
-0.451826 -0.228398 0.0103699
-0.23753 -0.155943 0.0115742
-0.25029 -0.13771 0.00821367
-0.840609 0.000933319 0.00602277
1.8396e-028 -2.3818e-031 -2.69783e-031
1.36723e-029 -8.91004e-032 -1.70879e-031
-0.839534 0.00519495 0.00297809
-0.556358 0.00277293 0.00281282
-0.501081 -0.000372991 0.00636903
-0.929383 0.00409912 0.00361766
-2.3625e-029 3.35191e-029 6.23687e-029
-0.473188 0.00438941 0.00196877
-0.505657 0.00646334 0.00356819
-3.70192e-029 3.33301e-031 2.02598e-031
-1.35602e-029 1.99728e-031 1.59081e-031
-2.09489e-029 -9.10552e-031 1.72085e-032
-4.55552e-017 2.00291e-018 3.3686e-019
-1.17864e-018 1.78206e-020 3.60828e-020
0.297492 -0.00220359 -0.00145253
-1.61687e-017 4.1245e-019 5.70522e-019
0.274655 -0.00529094 -0.00229693
0.28396 0.00448959 -0.0105675
-8.12174e-029 1.34347e-030 -3.03614e-031
0.381429 -0.00640175 0.000686188
0.319135 -0.00983591 0.00214483
0.345767 -0.00698911 0.000821515
0.530727 -0.00833727 5.56033e-005
0.54848 -0.00561491 -0.000109621
0.483026 -0.0105214 -0.000502366
-1.77534e-029 -1.96444e-031 2.66977e-032
-3.3332e-029 4.24203e-031 -2.09553e-032
5.36737e-017 -2.5943e-018 -3.0275e-019
4.69379e-017 -2.66521e-018 -4.41057e-019
0.278849 -0.00280475 -0.000744137
4.20464e-018 -2.09739e-019 -4.9118e-020
0.286623 -0.00369609 -0.00280007
-6.21723e-029 2.62895e-031 2.54215e-031
0.472461 0.00158103 -0.000701489
-4.13566e-029 1.47116e-031 1.0747e-031
0.289269 -0.00154709 -0.000826867
-9.74535e-017 1.63109e-019 7.01528e-019
0.370257 -0.00307201 -0.00188644
0.300917 -0.000109297 -0.000783087
0.495295 -0.00159896 -0.000800713
0.317922 0.00059802 -0.00218784
-1.66279e-029 1.25612e-031 -1.34e-031
-4.89835e-029 7.66062e-033 -3.19987e-031
-5.7043e-029 3.10856e-031 -2.75704e-031
3.33569e-017 -5.27574e-019 8.30234e-019
-3.58884e-017 6.07918e-019 -7.95917e-019
0.292403 -0.0038587 0.00574045
-2.34433e-017 3.25888e-019 -3.85381e-019
0.304083 -0.00292859 0.0038688
0.303836 -0.00332854 0.00288743
1.41267e-030 -8.19019e-030 4.5114e-031
-0.180394 0.117085 -0.0216741
1.95137e-030 -3.75087e-030 5.76591e-031
0.0748206 0.216653 -0.0291543
-0.0600292 0.0855863 -0.00565945
-1.36276e-017 6.97219e-018 1.48485e-020
0.00869 0.137513 -0.00697215
-0.068133 0.0434404 -0.00511369
-0.0687038 0.180262 -0.0236167
-0.00401324 0.0770484 -0.00786152
-6.70574e-030 -3.69632e-030 -8.22018e-031
-5.39878e-029 -7.44641e-030 -1.09244e-030
-9.17933e-030 -1.99955e-029 2.69388e-031
0.205284 0.0449123 0.0353173
0.243464 0.0879677 0.021391
0.256474 0.198388 0.0509026
2.83898e-030 5.25528e-029 -3.25026e-029
5.61692e-017 5.31067e-017 1.27473e-017
-6.97886e-017 -4.52729e-017 -1.32903e-017
-2.17715e-029 -1.76672e-031 5.29131e-032
1.4865e-029 4.07041e-019 -6.92778e-029
6.22214e-017 -1.66739e-018 -2.36257e-020
0.309317 -0.000417332 0.00142743
-0.0936612 -0.265113 0.00273394
1.62168e-030 3.28942e-030 -5.34535e-032
-0.152558 -0.263901 -0.00465228
3.60858e-030 8.10904e-030 4.92705e-032
-0.0600713 -0.137794 0.00368231
-0.127139 -0.273186 -0.00078471
-0.0605041 -0.145832 0.00229133
-0.0839183 -0.152255 0.00167204
9.92669e-018 1.9588e-017 -4.76813e-019
-0.0733612 -0.139531 -0.00010745
-0.287772 -0.325082 -0.0318045
-0.268343 -0.485477 -0.0340316
-0.118621 -0.184072 -0.0160834
-0.221393 -0.28146 -0.0389445
-0.286579 -0.415914 -0.0338346
-0.197849 -0.2729 -0.0258582
-0.224567 -0.367559 -0.0417783
-0.133624 -0.206685 -0.0228392
-0.212429 -0.36357 -0.0307028
0.470737 0.00160636 8.54581e-005
-9.78642e-029 -2.66896e-031 3.52798e-031
-4.01287e-029 -1.8839e-031 5.3883e-032
0.483869 0.00210365 -0.000744662
0.307173 0.00244849 -0.000895664
0.2903 0.00241274 0.000644698
0.490848 0.00258539 -0.00106585
4.27659e-029 -8.44943e-030 -1.06149e-028
0.401796 -0.00145318 -0.00158881
0.353383 -0.000377111 -0.00033793
-1.75776e-029 2.60884e-032 1.644e-032
-4.65788e-029 1.43648e-032 -7.20089e-033
-8.69575e-029 4.58134e-032 4.99458e-032
1.33657e-029 4.79224e-029 8.44491e-029
0.294803 -0.000467462 -0.000207634
6.40421e-017 3.18565e-019 -3.21265e-020
0.323115 0.000655005 0.000448488
-3.03148e-017 -1.00167e-019 2.89727e-020
0.294887 -8.23991e-005 -0.000405282
-2.63318e-029 4.75867e-032 -3.108e-032
-5.10649e-029 5.52656e-032 -1.09635e-031
0.512648 -0.000581868 0.000264035
-8.82271e-029 1.19609e-031 -2.13502e-031
8.3897e-017 -2.08234e-019 4.15338e-019
0.387101 -0.00088265 0.000772326
-6.61816e-017 3.71872e-019 -1.6825e-019
0.397832 -0.000720304 0.00197661
3.143e-017 5.70151e-020 2.07816e-019
0.377431 -0.00226389 0.000651687
0.469817 0.00115414 -0.000622494
-9.76564e-029 4.0472e-032 9.99779e-032
0.539442 9.32834e-005 -6.99723e-005
0.344473 0.000251914 -0.000349308
0.472804 0.00199438 0.00042528
0.376541 -0.00154843 0.00111242
0.546059 0.00197063 -0.000947876
0.383189 0.000803944 -0.000343779
1.29871e-029 1.24867e-031 -1.01702e-031
-0.347442 -0.00530521 0.00474095
8.41109e-017 9.14191e-019 -5.24616e-018
-0.462604 -0.00487302 0.00486022
-0.754718 -0.0107037 0.00456816
1.26364e-030 -5.80017e-029 3.67488e-030
1.52659e-031 -1.06946e-028 6.60087e-030
-0.00981557 0.658576 -0.0404981
3.19115e-005 0.664964 -0.0412478
-0.0121867 0.459038 -0.0300509
1.38259e-018 -8.87473e-017 5.91623e-018
-0.00799926 0.546402 -0.0345709
0.000644487 0.537899 -0.00222993
0.012143 0.279415 0.00223887
0.00426866 0.550114 -0.0078605
0.000145059 0.358032 9.2045e-005
0.00923288 0.435071 0.000731046
0.00341969 0.54692 -0.00520536
0.000352231 0.450732 -7.20983e-005
0.00851164 0.430403 -0.00237246
0.00522422 0.345778 0.00120297
0.00192739 0.469866 -0.0027573
0.00728107 0.266527 0.00613193
0.00183845 0.378669 0.00536692
0.000939907 0.284658 0.00332517
8.52186e-029 1.5838e-030 6.76613e-031
1.43256e-028 2.88954e-030 9.91556e-031
2.55921e-029 2.98533e-031 1.23409e-031
-0.630985 -0.0081032 -0.00366336
-0.594956 -0.00890674 -0.00590211
-0.594666 -0.0100296 -0.00357951
-1.35924e-016 3.43022e-019 -1.88676e-018
-1.60587e-016 -2.95849e-018 -1.36032e-018
-1.52587e-016 -3.13691e-018 -1.85742e-018
7.3741e-031 2.78256e-030 -6.15085e-032
-0.163771 -0.487958 -0.00390248
4.12229e-030 2.04799e-029 1.28339e-031
1.55057e-030 7.58045e-030 -1.36662e-031
-0.0946367 -0.355034 0.00655939
4.5063e-030 -4.21509e-030 -2.72154e-029
-4.27056e-017 -2.08658e-016 7.33601e-018