# vtk DataFile Version 2.0 
output.vtk, Created by Freefem++, via gregorio
ASCII
DATASET UNSTRUCTURED_GRID
POINTS 7451 double
-3.79965 2.23652 0.040848
-4.13429 2.05574 0.276253
-4.09122 2.24524 0.070091
-4.01836 2.27766 0.330071
-3.96697 2.14613 0.158551
-3.94543 2.24088 0.0554695
-3.90901 2.25709 0.185459
-4.11275 2.15049 0.173172
-4.07633 2.1667 0.303162
-4.05479 2.26145 0.200081
-4.81817 0.732763 -0.840268
-4.76136 0.37264 -0.736193
-5.12328 0.495929 -0.550642
-4.73872 0.559667 -0.434419
-4.78977 0.552702 -0.788231
-4.97072 0.614346 -0.695455
-4.77845 0.646215 -0.637344
-4.94232 0.434285 -0.643417
-4.75004 0.466153 -0.585306
-4.931 0.527798 -0.49253
-7.58244 -0.891248 -0.453516
-8 -0.559587 0.124298
-7.26059 -0.264226 0.250847
-7.58828 -0.999993 0.00381
-7.79122 -0.725418 -0.164609
-7.42152 -0.577737 -0.101334
-7.58536 -0.94562 -0.224853
-7.6303 -0.411906 0.187573
-7.79414 -0.77979 0.064054
-7.42444 -0.632109 0.127328
-5.46564 0.048234 0.998836
-5.51396 -0.351144 0.936321
-5.02851 -0.125769 0.598961
-5.56665 -0.148801 0.504295
-5.4898 -0.151455 0.967578
-5.24708 -0.0387675 0.798898
-5.51614 -0.0502835 0.751565
-5.27124 -0.238457 0.767641
-5.5403 -0.249972 0.720308
-5.29758 -0.137285 0.551628
-4.20269 -2.80441 0.102764
-3.63085 -2.57461 -0.287529
-4.13183 -2.29387 0.255347
-4.14432 -2.47254 -0.273935
-3.91677 -2.68951 -0.0923825
-4.16726 -2.54914 0.179055
-4.1735 -2.63848 -0.0855855
-3.88134 -2.43424 -0.016091
-3.88759 -2.52358 -0.280732
-4.13807 -2.38321 -0.009294
-6.25062 -0.085247 0.575431
-6.51584 -0.423084 -0.15939
-6.46019 0.447486 0.293263
-6.75561 -0.174737 0.413139
-6.38323 -0.254165 0.20802
-6.35541 0.181119 0.434347
-6.88822 -0.343655 0.0457285
-6.86039 0.09163 0.272055
-6.48801 0.012201 0.0669365
-4.88162 0.371746 0.655425
-4.51246 -0.112716 0.623981
-4.65723 0.09269 0.995695
-4.69704 0.129515 0.639703
-4.95507 0.122989 0.627193
-4.76942 0.232218 0.82556
-4.77049 -0.119243 0.611471
-4.58484 -0.010013 0.809838
-4.84287 -0.0165395 0.797328
-3.75099 1.20677 0.090288
-3.64118 0.745776 0.266863
-4.09568 0.790235 0.315934
-3.78936 1.07086 0.69071
-3.69609 0.976272 0.178575
-3.92333 0.998502 0.203111
-3.77017 1.13882 0.390499
-3.86843 0.768006 0.291399
-3.71527 0.908319 0.478787
-3.94252 0.930549 0.503322
-2.18572 0.40145 0.915881
-1.75478 0.245881 0.526965
-1.94554 -0.013967 0.999902
-1.76886 0.356252 0.93439
-1.97025 0.323665 0.721423
-2.06563 0.193741 0.957891
-1.97729 0.378851 0.925135
-1.85016 0.115957 0.763433
-1.76182 0.301067 0.730678
-1.8572 0.171143 0.967146
-5.06116 0.824959 0.710182
-4.88551 0.773989 0.80113
-4.92155 0.772883 0.437198
-5.01596 0.602336 0.857802
-4.97333 0.799474 0.755656
-4.99135 0.798921 0.57369
-5.03856 0.713647 0.783992
-4.90353 0.773436 0.619164
-4.95074 0.688163 0.829466
-4.96876 0.687609 0.6475
-2.34262 2.51752 0.051733
-2.4672 2.85727 -0.311185
-2.29554 2.81673 0.086134
-2.65762 2.74748 0.16058
-2.40491 2.6874 -0.129726
-2.31908 2.66712 0.0689335
-2.50012 2.6325 0.106157
-2.38137 2.837 -0.112526
-2.56241 2.80238 -0.0753025
-2.47658 2.7821 0.123357
-3.50303 -3.76846 -0.636668
-3.49422 -3.29308 -1.15018
-3.31427 -3.71149 -1.25136
-2.90724 -3.34218 -0.858121
-3.49863 -3.53077 -0.893424
-3.40865 -3.73997 -0.944014
-3.20514 -3.55532 -0.747394
-3.40425 -3.50228 -1.20077
-3.20073 -3.31763 -1.00415
-3.11076 -3.52683 -1.05474
-4.0054 2.49156 -0.125899
-3.5956 2.50054 -0.194198
-3.83412 2.54803 0.0159
-3.8005 2.49605 -0.160049
-3.90253 2.36404 -0.0425255
-3.91976 2.5198 -0.0549995
-3.69763 2.36853 -0.076675
-3.71486 2.52428 -0.089149
-3.81689 2.39228 0.028374
-3.73452 -3.68531 -1.05781
-3.52439 -3.6984 -1.15459
-3.61437 -3.4892 -1.104
-3.61877 -3.72688 -0.84724
-6.37864 0.944563 0.328331
-6.25891 0.813305 0.581838
-6.65332 0.772267 0.635298
-6.31878 0.878934 0.455085
-6.41941 0.696025 0.310797
-6.51598 0.858415 0.481815
-6.35955 0.630395 0.43755
-6.45612 0.792786 0.608568
-6.55675 0.609877 0.46428
1.62066 -0.841518 -0.540229
1.89324 0.238579 -0.195511
2.01627 -0.690819 -0.723027
2.25185 -0.211859 0.261412
1.75695 -0.30147 -0.36787
1.81846 -0.766169 -0.631628
1.93625 -0.526689 -0.139408
1.95475 -0.22612 -0.459269
2.07254 0.01336 0.0329505
2.13406 -0.451339 -0.230807
-2.56949 2.06853 0.305158
-2.91403 1.60744 0.564909
-3.02709 2.08175 0.021586
-2.87501 2.07662 0.630995
-2.74176 1.83799 0.435033
-2.79829 2.07514 0.163372
-2.72225 2.07258 0.468077
-2.97056 1.8446 0.293247
-2.89452 1.84203 0.597952
-2.95105 2.07919 0.32629
-5.39985 0.358755 0.933432
-5.34934 0.453264 0.543553
-5.56264 0.558471 0.829524
-5.70805 0.297641 0.954678
-5.37459 0.40601 0.738492
-5.48124 0.458613 0.881478
-5.55395 0.328198 0.944055
-5.45599 0.505868 0.686538
-5.52869 0.375452 0.749116
-5.63535 0.428056 0.892101
-4.17913 0.323834 -0.696515
-4.36183 0.516245 -0.417662
-4.60784 0.019305 -0.528365
-4.46586 0.364911 -0.72315
-4.27048 0.42004 -0.557088
-4.39349 0.17157 -0.61244
-4.3225 0.344372 -0.709832
-4.48483 0.267775 -0.473013
-4.41384 0.440578 -0.570406
-4.53685 0.192108 -0.625757
-5.9377 0.438799 -0.558905
-5.87927 0.529091 -0.848565
-6.25926 0.555743 -0.831354
-6.07929 0.245277 -0.969453
-5.90849 0.483945 -0.703735
-6.09848 0.497271 -0.695129
-6.00849 0.342038 -0.764179
-6.06927 0.542417 -0.839959
-5.97928 0.387184 -0.909009
-6.16928 0.40051 -0.900404
-3.64743 2.72944 0.180305
-3.74077 2.63873 0.0981025
-3.72354 2.48298 0.110576
-3.62151 2.61499 -0.0069465
-3.98168 0.388062 0.141859
-3.76543 0.320245 0.603448
-3.81143 0.566919 0.204361
-3.70331 0.533011 0.435156
-4.03868 0.589149 0.228897
-3.87356 0.354154 0.372653
-3.93055 0.55524 0.459691
-6.17342 0.027823 -0.593282
-6.59748 0.255766 -0.966739
-6.35964 0.547779 -0.240473
-6.21634 0.291783 -0.712318
-6.42837 0.405755 -0.899047
-6.30945 0.551761 -0.535914
-6.38545 0.141794 -0.78001
-6.26653 0.287801 -0.416878
-6.47856 0.401772 -0.603606
-5.98474 0.742767 -0.66955
-5.96122 0.590783 -0.614227
-6.122 0.649255 -0.750452
-5.93201 0.635929 -0.759057
-5.86659 0.345457 -0.129882
-5.96054 -0.099592 -0.035866
-6.02 0.18664 -0.361582
-6.11312 0.446618 -0.185177
-5.91357 0.122933 -0.082874
-6.06698 -0.0358845 -0.314574
-6.16009 0.224094 -0.13817
-1.10421 0.363269 -0.931684
-0.773878 0.737644 -0.67519
-0.520452 0.269543 -0.962988
-0.384634 0.008888 -0.353445
-0.939043 0.550457 -0.803437
-0.812329 0.316406 -0.947336
-0.74442 0.186079 -0.642564
-0.647165 0.503594 -0.819089
-0.579256 0.373266 -0.514317
-0.452543 0.139215 -0.658216
-2.85287 -3.00249 -1.21636
-3.23054 -2.92385 -1.196
-3.06719 -3.3306 -1.25351
-2.88006 -3.17233 -1.03724
-3.06889 -3.13301 -1.02706
-2.98722 -3.33639 -1.05581
-3.0417 -2.96317 -1.20618
-2.96003 -3.16654 -1.23493
-3.14886 -3.12722 -1.22475
-3.38618 -2.05134 -0.098565
-2.37808 -2.56123 -0.134541
-2.49252 -2.47812 0.422472
-2.41131 -1.89586 0.044632
-2.88213 -2.30628 -0.116553
-2.93935 -2.26473 0.161954
-2.89875 -1.9736 -0.0269665
-2.4353 -2.51967 0.143966
-2.39469 -2.22855 -0.0449545
-2.45192 -2.18699 0.233552
-1.85713 -0.413967 0.42138
-1.65927 -0.390905 0.920431
-1.2503 -0.077569 0.384148
-1.80595 -0.084043 0.474172
-1.70702 -0.072512 0.723698
-1.50254 0.084156 0.455557
-1.7582 -0.402436 0.670905
-1.55371 -0.245768 0.402764
-1.45478 -0.234237 0.652289
-2.09043 2.55218 0.167395
-2.0659 2.66009 -0.048555
-2.19298 2.68445 0.126765
-2.18072 2.73841 0.0187895
-2.07816 2.60614 0.05942
-2.21652 2.53485 0.109564
-2.20426 2.58881 0.001589
-4.01665 2.44382 0.136481
-3.97233 2.67361 0.084512
-3.92539 2.49592 0.0761905
-3.99449 2.55872 0.110496
-4.01103 2.46769 0.005291
-3.90323 2.61082 0.050206
-3.98887 2.58259 -0.0206935
-3.92754 1.80484 -0.220103
-4.28096 1.83407 -0.225431
-4.13592 1.88983 -0.461486
-4.146 2.03152 -0.278406
-4.10425 1.81945 -0.222767
-4.03173 1.84734 -0.340795
-4.03677 1.91818 -0.249254
-4.20844 1.86195 -0.343458
-4.21348 1.9328 -0.251918
-4.14096 1.96068 -0.369946
-4.04038 -5 0.949212
-3.62468 -5 1.26221
-3.84559 -4.54287 1.07336
-3.71487 -5 0.728948
-3.83253 -5 1.10571
-3.94299 -4.77144 1.01129
-3.87763 -5 0.83908
-3.73513 -4.77144 1.16779
-3.66977 -5 0.99558
-3.78023 -4.77144 0.901156
-1.37334 0.812082 -0.583544
-0.975724 0.961208 -0.275823
-1.19336 -0.166381 -0.273753
-1.17453 0.886645 -0.429683
-1.07361 0.774863 -0.629367
-1.28335 0.32285 -0.428648
-0.874801 0.849426 -0.475506
-1.08454 0.397413 -0.274788
-0.983618 0.285631 -0.474471
-3.83515 -1.82017 -0.741539
-3.34976 -1.58414 -0.592596
-3.50394 -2.07825 -1.02313
-3.59245 -1.70215 -0.667067
-3.66955 -1.94921 -0.882335
-3.61067 -1.93575 -0.420052
-3.42685 -1.83119 -0.807863
-3.36797 -1.81774 -0.345581
-3.44506 -2.06479 -0.560848
-2.72946 0.769161 0.094533
-2.75119 0.681139 -0.326037
-2.98528 1.02631 -0.281501
-3.08113 0.734324 -0.34324
-2.74032 0.72515 -0.115752
-2.85737 0.897737 -0.093484
-2.90529 0.751742 -0.124353
-2.86823 0.853726 -0.303769
-2.91616 0.707731 -0.334639
-3.03321 0.880319 -0.31237
-2.94023 -2.47675 -0.674772
-3.14499 -2.03044 -0.633684
-3.22209 -2.2775 -0.848951
-3.16321 -2.26404 -0.386669
-3.03914 -4.25341 0.579285
-2.64287 -3.80807 0.20828
-2.47531 -4.18593 0.714333
-2.97264 -3.41482 0.618231
-2.84101 -4.03074 0.393783
-2.75723 -4.21967 0.646809
-3.00589 -3.83412 0.598758
-2.55909 -3.997 0.461307
-2.80776 -3.61144 0.413255
-2.72397 -3.80037 0.666282
-2.39684 -0.595487 -0.803365
-1.98884 -0.54749 -0.836812
-2.24172 -0.466498 -0.098067
-2.21295 -0.01831 -0.514797
-2.19284 -0.571489 -0.820088
-2.31928 -0.530992 -0.450716
-2.3049 -0.306899 -0.659081
-2.11528 -0.506994 -0.46744
-2.1009 -0.2829 -0.675804
-2.22734 -0.242404 -0.306432
-3.36239 -4.55484 -1.31864
-3.11171 -4.25429 -0.873787
-2.86199 -4.55394 -1.36046
-2.79118 -5 -0.96439
-3.23705 -4.40456 -1.09621
-3.11219 -4.55439 -1.33955
-3.07678 -4.77742 -1.14151
-2.98685 -4.40411 -1.11712
-2.95144 -4.62714 -0.919088
-2.82658 -4.77697 -1.16243
-3.88203 2.65205 -0.416886
-3.48121 2.84727 -0.340672
-3.82273 3 -0.474998
-3.72541 2.76868 -0.627028
-3.68162 2.74966 -0.378779
-3.85238 2.82603 -0.445942
-3.80372 2.71037 -0.521957
-3.65197 2.92364 -0.407835
-3.60331 2.80798 -0.48385
-3.77407 2.88434 -0.551013
[...]
POINT_DATA 7451
 
FIELD FieldData 2
velocity 3 7451 double
-0.122362 -0.347412 0.00952575
1.52467e-030 3.44254e-030 -1.9007e-031
4.42259e-031 1.2063e-030 -5.61447e-032
1.27509e-030 3.42632e-030 -1.73796e-031
-0.0833462 -0.203507 0.0114241
-0.0725828 -0.199714 0.00924715
-0.0802468 -0.232179 0.0122754
-1.87343e-018 -4.53814e-018 3.14553e-019
5.66465e-018 1.4099e-017 -1.10424e-018
1.86271e-029 -7.99402e-030 -4.34331e-030
8.82945e-030 2.94225e-030 -2.00032e-031
-0.411321 -0.109316 0.0010657
-0.627257 -0.142638 0.00747261
-0.70715 -0.230936 0.0061539
-0.227282 -0.0769827 0.00704663
-0.306636 -0.0932172 0.00986922
-0.405819 -0.146986 0.00939291
-0.53555 -0.134371 0.00699945
-0.593249 -0.174671 0.0053431
-0.676773 -0.192753 0.00845153
9.47775e-029 -2.92789e-031 2.73196e-032
-0.848439 0.00732201 -0.000626649
-1.1065 4.48377e-005 -0.00060314
5.47282e-029 -2.20354e-031 5.26671e-032
-0.552622 0.00343597 7.4791e-005
-0.836675 7.05064e-006 -0.00253408
-1.34505e-016 2.50009e-019 -3.15905e-019
-1.00899 0.00128486 -7.60768e-005
-0.479865 0.00635055 -0.000802009
-0.74294 0.0019231 -0.000178059
3.22491e-029 3.33681e-030 5.75634e-032
2.12321e-029 1.3575e-030 2.7641e-031
-0.701178 -0.104942 -0.0137528
-0.886119 -0.0623055 -0.00508267
-1.47395e-016 -6.05125e-018 -1.46345e-018
-0.423312 -0.0483198 -0.00392254
-0.527004 -0.0336206 -0.00350164
-0.404061 -0.0314038 -0.00760121
-0.506127 -0.0233054 -0.00491265
-0.799295 -0.0859207 -0.0084954
-4.19251e-030 -6.41597e-029 1.84676e-030
0.0263677 0.426747 0.00309484
-4.57306e-030 -7.605e-029 2.35496e-030
-8.02831e-031 -9.53064e-030 3.97551e-033
0.0238068 0.290926 -0.0035346
-5.27437e-017 -5.86578e-016 1.79742e-017
-4.02058e-018 -4.0609e-017 5.66544e-019
0.0269877 0.344971 -0.00552636
0.0221602 0.253568 0.000462497
-5.78333e-017 -6.19379e-016 1.06315e-017
-0.832092 -0.0163502 -0.00239775
-1.00494 -0.0096177 -0.00223449
-0.904733 -0.0129817 -0.000916601
-1.01215 -0.00262182 -0.000990815
-1.13389 -0.0173223 -0.00317781
-0.986533 -0.0172181 -0.00229008
-1.11777 -0.00468336 -0.00385781
-1.17188 -0.00250839 -0.000477968
-1.27207 -0.017015 -0.00155184
-0.564337 -0.186703 0.00461514
-0.570883 -0.102026 -0.0202614
1.83537e-029 5.03278e-030 1.94102e-031
-0.624489 -0.165503 -0.00820754
-0.689944 -0.154586 -0.00385168
-0.309936 -0.109055 0.00318909
-0.635773 -0.112096 -0.0189006
-0.342483 -0.0933281 -0.0102688
-0.390481 -0.0842895 -0.00827057
-0.430256 -0.453541 -0.0223804
-0.4668 -0.264269 -0.0494619
-0.60627 -0.335798 -0.0144856
-0.239509 -0.300988 -0.000385518
-0.465303 -0.384675 -0.0388645
-0.519887 -0.39731 -0.0198671
-0.393971 -0.41702 -0.0157494
-0.554203 -0.308909 -0.0318392
-0.386943 -0.327381 -0.023832
-0.423229 -0.334473 -0.00727697
-1.68214e-029 -6.28732e-030 1.10192e-030
0.348835 0.0521844 -0.00628519
-2.02123e-029 -6.009e-030 -3.69797e-031
-4.27388e-030 -2.19106e-031 2.16114e-032
0.188157 0.0293471 -0.00586495
6.03108e-017 5.25419e-018 2.31969e-018
3.22111e-018 2.16557e-019 -2.40113e-020
0.213286 0.0170433 -0.00126826
0.199074 0.0110527 0.00113597
-6.92601e-017 -5.8324e-019 -8.76239e-019
2.50024e-017 1.16282e-017 -7.05632e-019
2.70378e-030 1.23355e-030 -5.24461e-032
-0.508991 -0.210521 0.00890033
2.88827e-030 1.18147e-030 -5.45562e-032
1.25063e-017 6.27069e-018 -3.93727e-019
-0.286776 -0.126824 0.00672739
1.54864e-016 6.95981e-017 -2.29344e-018
-0.286906 -0.138478 0.00777151
1.52447e-016 7.80706e-017 -3.44812e-018
-0.316443 -0.135158 0.00585069
-0.0331822 -0.236366 -0.0136047
-0.0203999 -0.251294 -0.00884727
-0.0125852 -0.235812 -0.00698792
-0.052261 -0.498616 -0.0152556
-0.0289615 -0.266495 -0.01122
-0.0231425 -0.23719 -0.0104704
-0.0455483 -0.378236 -0.016366
-0.0187632 -0.269013 -0.00948645
-0.038114 -0.394624 -0.0124461
-0.0320867 -0.382752 -0.0117541
0.0113216 0.27019 0.00817223
-6.38339e-031 -2.03239e-029 -1.02425e-030
-3.19148e-031 -1.55604e-029 -8.7956e-031
-0.00174445 0.22663 0.012869
0.00640077 0.144739 0.00807009
0.00554824 0.14204 0.00808881
0.00476122 0.276343 0.0117497
2.1655e-029 2.09594e-030 6.2897e-029
0.00225189 0.135463 0.00917321
0.00113167 0.116752 0.00828454
9.42387e-031 3.47268e-030 -9.7883e-032
-0.0905993 -0.370981 0.00389347
-0.0484898 -0.229518 0.00499732
-0.0580536 -0.233229 0.00628101
-0.0603065 -0.19414 0.00618492
-0.027623 -0.117227 0.00341204
-0.110367 -0.371794 0.00582959
-0.0760716 -0.329571 0.00568025
-0.0823949 -0.287094 0.00758262
-2.57338e-031 -4.55977e-030 -2.22712e-031
-3.63511e-018 -6.91725e-017 -5.12543e-018
3.54812e-018 6.18198e-017 4.48845e-018
0.00768145 0.137084 0.0066693
1.00603e-029 1.7181e-031 2.08532e-033
1.33287e-029 2.22611e-031 1.5674e-032
1.73883e-029 1.85053e-031 4.2553e-032
6.95879e-017 1.53865e-018 8.45183e-020
-0.521029 -0.0128185 -0.000504036
-4.85665e-030 -4.40739e-029 -2.22625e-029
-0.511514 -0.00650059 -0.000658922
-1.81824e-017 8.20517e-019 -3.85949e-020
-0.520551 -0.00586573 -0.00102988
-1.46815e-028 3.7033e-031 -7.08266e-032
0.485805 0.00057464 0.000720302
-5.42909e-029 3.72841e-032 -1.27815e-031
0.473298 -0.00219209 0.00130575
0.416515 -0.00126481 0.000284155
-6.68097e-017 3.46469e-020 -3.04499e-019
0.375894 -0.000220397 0.00135974
0.394052 0.000704238 0.000859283
0.536029 -0.00104561 0.0016335
0.397437 -0.00115397 0.00173918
-0.080418 -0.330054 -0.0289316
-0.118794 -0.343997 -0.0342386
-0.170856 -0.533975 -0.0261969
-0.0910758 -0.413412 -0.0214946
-0.107136 -0.364347 -0.0346825
-0.134756 -0.482505 -0.0337902
-0.0938966 -0.402324 -0.0297562
-0.178538 -0.518876 -0.0379325
-0.108458 -0.386017 -0.0283772
-0.152251 -0.552288 -0.0314428
3.04312e-030 4.02246e-031 -6.68763e-032
-0.669426 -0.123836 0.0100178
6.58081e-030 5.27762e-031 -1.15696e-031
2.92121e-029 1.95122e-030 -1.50062e-031
-0.377215 -0.049982 0.0103001
-9.80387e-017 -7.7678e-018 3.41878e-018
1.36408e-016 6.19106e-018 -3.96363e-018
-0.364796 -0.0442068 0.008912
-0.380729 -0.0311446 0.0070067
-2.22418e-017 -7.05462e-019 7.78122e-019
-0.403947 -0.101809 -0.0145596
-0.687174 -0.233562 -0.0114224
-0.72931 -0.11301 -0.00680685
-0.409269 -0.118085 -0.005116
-0.567362 -0.170122 -0.0140854
-0.583172 -0.118405 -0.0114901
-0.411205 -0.11423 -0.00960927
-0.743826 -0.175111 -0.0115535
-0.579051 -0.181739 -0.00660796
-0.594063 -0.127564 -0.00635562
-0.627833 -0.0135828 0.00193331
3.27391e-030 3.84235e-032 -6.76196e-033
2.91602e-029 3.55695e-031 -1.49916e-031
1.34265e-029 1.80866e-031 -2.72026e-032
-0.338372 -0.00335968 0.00129693
-0.335903 -0.00629643 0.00283642
-0.366489 -0.00424269 0.00202898
-2.40047e-016 -1.90829e-018 2.10944e-018
-1.15723e-016 -2.40061e-019 1.04772e-018
-1.07856e-029 -2.09131e-029 4.6948e-029
-0.0587457 -0.397268 0.00547223
-0.0557132 -0.320661 0.0056554
-0.0866058 -0.369379 0.00671905
-0.0793343 -0.412994 0.00417744
-0.742032 -0.152936 -0.04392
-0.409194 -0.038894 -0.0207225
-0.604631 -0.204056 -0.0494443
-0.464219 -0.144672 -0.0397292
-0.695314 -0.262893 -0.0312071
-0.615161 -0.0963185 -0.0370119
-0.54746 -0.20915 -0.0224058
-0.812521 -0.0103514 0.000548405
-3.67287e-017 4.33017e-020 8.28014e-020
-0.812921 -0.00913171 0.00351065
-0.507987 -0.00735175 0.00301218
-2.44307e-029 -2.98759e-029 5.89283e-029
-0.508061 -0.00582478 0.00456511
-0.461541 -0.00798041 0.00171795
-0.943809 -0.0126734 0.00306127
-0.59174 -0.00286923 0.00303513
5.29096e-030 9.24963e-032 -8.27737e-033
-0.342963 -0.00644502 0.00203124
-7.74226e-017 -1.26228e-018 8.27582e-019
-1.02252e-016 -8.38602e-019 6.57202e-019
-1.1153 -0.0514735 0.00287594
-1.24975 -0.041872 -0.00320811
-1.06189 -0.0266814 0.000697984
-0.980429 -0.0224993 0.0034938
-1.24772 -0.0507965 0.000217343
-1.14049 -0.0263535 -0.00144713
-1.18892 -0.0274942 0.0014728
1.98654e-017 -1.53245e-019 -3.14475e-019
-4.78922e-029 4.6152e-031 4.6677e-031
-1.77565e-029 5.34908e-032 9.28743e-032
0.476927 -0.00459425 -0.000872769
-3.05615e-017 2.81828e-019 4.44623e-019
1.31914e-029 -3.16645e-029 9.57171e-029
0.291278 -0.00295462 -0.00292556
-3.14896e-017 1.04193e-019 3.21429e-019
0.325938 -0.00365176 -0.00232729
0.294357 9.12232e-005 -0.00200662
7.58363e-032 -7.07712e-030 -5.52173e-031
-3.18568e-031 -2.17761e-029 -1.30758e-030
-6.03864e-033 -2.61814e-030 -1.96265e-031
-0.00126522 0.118997 0.00924932
0.00199613 0.125958 0.0100248
4.19685e-005 0.114829 0.00807427
-7.11937e-019 1.23554e-030 5.15358e-029
-7.79435e-020 2.67589e-017 2.41786e-018
6.46223e-019 -5.66091e-017 -5.18012e-018
0.0217391 0.706353 -0.00681114
-0.0254914 0.512055 -0.00126925
-0.027933 0.720717 -0.0359828
-0.0280966 0.659916 -0.0177937
-0.00728299 0.750064 -0.00388173
-0.00380785 0.907951 -0.0249882
-0.00651363 0.854162 -0.0150311
-0.0280752 0.669289 -0.0154343
-0.0269674 0.587374 -0.00695014
-0.0294389 0.720128 -0.0283848
0.366829 0.162082 0.0240531
-2.59615e-029 -1.67549e-030 -1.74936e-031
0.456471 0.015263 -0.00241097
0.408828 0.105826 -0.000191895
0.246464 0.00748883 -0.000859177
0.422773 0.0333155 -0.00189148
0.195533 0.00522388 0.00893077
0.412751 0.0527788 -0.00135773
0.268423 0.000994476 -0.00313508
-1.96237e-018 -2.71265e-017 -1.21061e-018
1.08036e-031 1.22595e-030 5.96856e-032
-0.00756517 -0.120036 -0.00447304
-0.00809196 -0.115008 -0.00397479
-4.15868e-018 -5.202e-017 -2.19996e-018
-0.0166009 -0.129608 -0.00744299
-0.0152832 -0.121729 -0.00783301
-7.42649e-018 -3.00477e-017 1.13011e-018
2.77409e-031 1.76154e-030 -3.75531e-032
-0.0311866 -0.133259 0.00425101
1.24873e-017 6.63423e-017 -1.63171e-018
2.00174e-029 -6.58738e-030 -1.18477e-031
-0.0211773 -0.13089 0.00192194
2.18096e-017 1.18446e-016 -2.51828e-018
-0.183876 -0.295166 0.00800577
1.44399e-030 2.01863e-030 -1.11653e-031
6.80415e-031 1.09206e-030 -5.51082e-032
5.10687e-031 8.88151e-031 -4.62745e-032
-0.112904 -0.169991 0.009504
-0.103148 -0.164896 0.00835677
-0.100059 -0.169721 0.00865183
-5.14496e-017 -7.76442e-017 5.74457e-018
-2.86261e-016 -4.54443e-016 3.3476e-017
-1.97654e-016 -3.32239e-016 2.31028e-017
-1.30167e-031 -3.90074e-030 1.63919e-031
-2.00535e-031 -1.13614e-029 5.24688e-031
-6.22008e-031 -1.95048e-029 1.055e-030
0.0101091 0.404977 -0.0135824
-3.56265e-018 -1.59695e-016 7.4642e-018
-5.80485e-019 -1.81831e-017 9.42435e-019
0.00652664 0.240486 -0.00891861
3.17184e-018 1.22632e-016 -1.93604e-018
0.00599443 0.296688 -0.0135159
0.00899024 0.289725 -0.0148585
-5.53352e-029 -4.35564e-032 1.25032e-030
-5.81247e-029 3.78543e-031 6.29863e-031
0.48057 -0.0116917 7.56041e-005
2.52895e-017 3.27699e-020 -6.42404e-019
-2.75093e-017 1.57681e-019 6.24621e-019
0.383998 -0.0032273 -0.00829841
-6.25346e-017 5.4421e-019 6.17033e-019
0.420454 -0.0018875 -0.00599475
0.370452 -0.0055657 -0.00333831
5.98033e-020 8.94714e-019 4.24417e-020
0.00722751 0.400584 0.0160671
-2.14282e-030 -5.92977e-029 -2.03213e-030
0.00829962 0.218615 0.0103467
-8.99237e-018 -7.15088e-017 -9.21843e-018
0.0197066 0.390109 0.0084258
0.00759089 0.186846 0.0122218
0.0149221 0.582693 0.00795089
0.0158867 0.379932 0.013514
0.0198741 -0.0553138 -0.0508718
0.0190464 -0.0109203 -0.0340877
-0.128888 -0.209043 -0.0356782
-0.135596 -0.100817 -0.0473622
0.0177185 -0.0437257 -0.047267
-0.0621266 -0.159144 -0.0467175
-0.0629505 -0.10195 -0.0563402
-0.0456111 -0.0931923 -0.0322766
-0.0515344 -0.053703 -0.0412013
-0.126425 -0.158421 -0.0420808
-0.00170905 0.364507 0.016712
0.00694407 0.410592 0.0168646
0.00728027 0.225514 0.0134917
0.00915116 0.574208 0.0103082
0.000692621 0.671739 -0.0285889
-0.0160883 0.677115 -0.015711
-0.0173787 0.53523 -0.0309232
-0.000700291 0.744401 -0.0424218
-0.0083326 0.72508 -0.0223322
-0.00978198 0.658252 -0.0322527
0.000345322 0.708759 -0.0361138
-0.0189271 0.65236 -0.0240175
-0.0104199 0.75712 -0.026456
-0.0129269 0.672698 -0.0377482
1.78123e-017 5.37287e-017 3.73237e-018
5.69209e-017 1.4211e-018 1.0824e-019
0.401788 0.441113 -0.0211202
0.301891 0.106942 -0.0260785
1.35606e-029 3.65795e-029 4.13757e-029
0.265692 0.292793 -0.0149149
0.201546 0.111876 -0.0180412
0.299458 0.16777 -0.0169665
0.231539 0.0571387 -0.012466
0.384954 0.250343 -0.0292513
7.9855e-019 2.08924e-017 1.62476e-018
0.00199625 0.207863 0.00814401
1.88326e-031 -1.31724e-029 -4.8776e-031
-0.00167263 0.155147 0.00262625
0.00229724 0.0990111 0.00569465
1.31094e-018 3.28514e-017 4.34965e-018
0.000583485 0.0887606 0.00324809
-3.41017e-005 0.0988406 0.00531295
-0.00064564 0.185259 0.00465738
-0.00104378 0.0777528 0.00281225
6.17581e-031 3.33989e-030 -6.94887e-032
-0.041382 -0.321601 0.00195116
5.74899e-031 1.0711e-029 -1.02877e-031
9.85753e-031 4.88175e-030 -8.68242e-032
-0.0277951 -0.189858 0.0036604
-2.85402e-017 -2.42385e-016 5.45283e-018
2.22661e-029 -4.84106e-030 1.5524e-029
-0.0179381 -0.18362 0.0020997
-0.0257638 -0.17616 0.00174729
-2.28413e-017 -1.97513e-016 2.85024e-018
0.516938 -0.000288512 -0.000175578
-2.02437e-029 2.53157e-032 -4.58706e-033
-2.10479e-029 1.3421e-032 4.02902e-033
-3.58528e-029 4.93276e-032 6.36284e-033
0.347521 0.000137623 -8.37996e-005
0.349137 -0.000133891 -0.00022866
0.347072 -0.000300954 6.18975e-005
1.41832e-029 -6.57201e-020 9.97737e-020
1.28609e-029 3.36226e-021 -1.16134e-020
2.53878e-017 -1.68534e-020 -1.3819e-030
0.201669 0.751997 -0.0457687
-0.0113899 0.795577 -0.0288759
-0.0172215 0.929839 -0.0874993
0.0360028 0.71313 -0.00547376
0.0918835 0.90211 -0.0528411
0.0688026 0.883622 -0.075712
0.136485 0.844547 -0.0394881
-0.0178014 0.982016 -0.0658824
0.0523465 0.815023 -0.0196027
0.0433091 0.986052 -0.0569059
-7.5851e-029 1.09282e-031 2.25392e-032
-4.46602e-029 8.60798e-032 8.85938e-032
-5.54557e-029 4.44834e-031 -5.03166e-032
0.472846 -0.00387201 0.000122003
1.97301e-017 1.04807e-019 -9.88135e-020
3.84638e-019 -4.46557e-022 -4.74567e-022
0.373267 4.71603e-005 -0.00127669
9.08078e-019 -2.5258e-022 3.44189e-030
0.333245 0.000513961 -0.00101664
0.379301 -0.0025824 0.000700866
8.20796e-030 4.78151e-030 -2.48982e-031
-0.394353 -0.239779 0.0120074
2.79523e-030 1.65954e-030 -1.05361e-031
-0.268579 -0.172297 0.0101942
-0.260656 -0.139515 0.00811856
5.73945e-016 3.87075e-016 -2.92821e-017
-0.451853 -0.228415 0.0103669
-0.237543 -0.155949 0.0115716
-0.250302 -0.137716 0.00821287
-0.840661 0.000934015 0.00602362
1.7947e-028 -2.325e-031 -2.63303e-031
1.33385e-029 -8.69379e-032 -1.66715e-031
-0.839587 0.00519608 0.0029787
-0.556389 0.00277389 0.00281367
-0.501107 -0.0003726 0.00636955
-0.929443 0.00410011 0.00361841
-2.30481e-029 3.26989e-029 6.08427e-029
-0.473214 0.00439041 0.00196955
-0.505684 0.00646408 0.00356874
-3.61148e-029 3.24793e-031 1.97121e-031
-1.32288e-029 1.94511e-031 1.54989e-031
-2.04366e-029 -8.88978e-031 1.59038e-032
-4.55559e-017 2.00219e-018 3.35876e-019
-1.17866e-018 1.77932e-020 3.60307e-020
0.297502 -0.00219918 -0.00144694
-1.61687e-017 4.11976e-019 5.69901e-019
0.274662 -0.00528504 -0.00229428
0.283965 0.0044982 -0.0105566
-7.92345e-029 1.31084e-030 -2.96511e-031
0.381449 -0.00640286 0.00068792
0.319153 -0.00983707 0.00214594
0.345785 -0.00698975 0.000822274
0.530762 -0.00834141 5.75234e-005
0.548516 -0.00561713 -0.000108509
0.483057 -0.0105223 -0.000500924
-1.73197e-029 -1.9252e-031 2.61408e-032
-3.25177e-029 4.1333e-031 -2.04965e-032
5.36744e-017 -2.59244e-018 -3.02374e-019
4.6939e-017 -1.96458e-018 -3.25261e-019
0.278858 -0.00279454 -0.000743692
4.20472e-018 -2.09642e-019 -4.90787e-020
0.286634 -0.00368948 -0.00279879
-6.0654e-029 2.56529e-031 2.47977e-031
0.47249 0.00158082 -0.000701585
-4.03466e-029 1.43515e-031 1.04825e-031
0.289282 -0.0015474 -0.00082684
-9.74572e-017 1.6307e-019 7.01506e-019
0.370274 -0.00307203 -0.00188605
0.300931 -0.000109563 -0.000782851
0.495327 -0.00159882 -0.000800604
0.317937 0.000598328 -0.00218786
-1.62217e-029 1.22554e-031 -1.30728e-031
-4.77871e-029 7.44912e-033 -3.12135e-031
-5.56498e-029 3.03218e-031 -2.68954e-031
3.33579e-017 -5.27599e-019 8.30235e-019
-3.58896e-017 6.07939e-019 -7.95929e-019
0.292416 -0.0038591 0.00574057
-2.34441e-017 3.2588e-019 -3.85383e-019
0.304097 -0.00292865 0.00386883
0.30385 -0.00332855 0.00288757
1.37815e-030 -7.9902e-030 4.401e-031
-0.180406 0.1171 -0.0216751
1.90375e-030 -3.65939e-030 5.62499e-031
0.0748258 0.21666 -0.029158
-0.0600327 0.0855901 -0.00565913
1.89467e-018 6.97207e-018 1.47314e-020
0.00869183 0.137521 -0.00697186
-0.0681372 0.0434427 -0.0051135
-0.0687092 0.180276 -0.0236188
-0.00401311 0.0770541 -0.00786167
-6.54173e-030 -3.60726e-030 -8.02658e-031
-5.2669e-029 -7.26378e-030 -1.06751e-030
-8.95529e-030 -1.95096e-029 2.62628e-031
0.205279 0.0449376 0.0353459
0.243464 0.0879875 0.0214157
0.256477 0.198429 0.0509349
2.76945e-030 5.12671e-029 -3.17067e-029
5.61695e-017 5.31214e-017 1.27574e-017
-6.97884e-017 -4.52815e-017 -1.33004e-017
-2.12398e-029 -1.73271e-031 5.20264e-032
-1.35053e-017 -1.98637e-029 -7.07787e-020
5.22269e-017 -1.66556e-018 -2.39541e-020
0.309329 -0.000406221 0.00142465
-0.0936634 -0.265122 0.00273579
1.58204e-030 3.20901e-030 -5.21701e-032
-0.152564 -0.263908 -0.00464909
3.52037e-030 7.91088e-030 4.80196e-032
-0.0600728 -0.137798 0.00368299
-0.127143 -0.273195 -0.000781696
-0.0605054 -0.145837 0.00229185
-0.0839207 -0.152258 0.00167304
9.92688e-018 1.95884e-017 -4.76803e-019
-0.0733631 -0.139534 -0.000106933
-0.287792 -0.32509 -0.0318079
-0.268365 -0.485483 -0.0340559
-0.118625 -0.184075 -0.016082
-0.221407 -0.281472 -0.038951
-0.286599 -0.415927 -0.0338456
-0.19786 -0.272902 -0.0258584
-0.224581 -0.367573 -0.0417945
-0.133631 -0.206691 -0.022839
-0.212442 -0.363576 -0.0307079
0.470766 0.00160668 8.54437e-005
-9.54747e-029 -2.60464e-031 3.44244e-031
-3.91487e-029 -1.83819e-031 5.25856e-032
0.4839 0.00210401 -0.000744609
0.307188 0.00244901 -0.000896187
0.290314 0.00241303 0.000644495
0.490879 0.00258581 -0.00106574
4.17215e-029 -8.24262e-030 -1.03552e-028
0.401817 -0.00145282 -0.00158912
0.3534 -0.000376919 -0.000337849
-1.71483e-029 2.54496e-032 1.60613e-032
-4.54414e-029 1.40082e-032 -6.9898e-033
-8.48343e-029 4.46495e-032 4.87646e-032
1.30392e-029 4.67498e-029 8.23826e-029
0.294817 -0.000467508 -0.000208035
6.40446e-017 3.186e-019 -3.23074e-020
0.323131 0.000654986 0.000448197
-3.03162e-017 -1.00201e-019 2.90234e-020
0.294902 -8.22458e-005 -0.000405541
-2.56889e-029 4.64343e-032 -3.0336e-032
-4.9818e-029 5.39176e-032 -1.06974e-031
0.512684 -0.00058186 0.000264118
-8.6073e-029 1.16657e-031 -2.08312e-031
8.39007e-017 -2.0831e-019 4.15408e-019
0.387122 -0.000883091 0.000772529
-6.61846e-017 3.71973e-019 -1.68279e-019
0.397854 -0.000720339 0.00197689
3.14315e-017 5.70303e-020 2.07839e-019
0.377452 -0.00226422 0.000651746
0.469846 0.00115392 -0.000622221
-9.52719e-029 3.95317e-032 9.7581e-032
0.539476 9.28791e-005 -6.95163e-005
0.34449 0.000251422 -0.000349682
0.472832 0.00199436 0.000425551
0.37656 -0.00154873 0.0011122
0.546095 0.00197137 -0.000948039
0.383209 0.000803964 -0.000343773
1.26699e-029 1.21781e-031 -9.92356e-032
-0.347458 -0.00530446 0.00474155
8.41143e-017 9.13993e-019 -3.27265e-018
-0.462626 -0.00487201 0.00486099
-0.754761 -0.0107018 0.00456966
1.23298e-030 -5.66598e-029 3.59344e-030
1.48855e-031 -1.04476e-028 6.45511e-030
-0.00981867 0.659552 -0.0405918
3.35789e-005 0.666004 -0.0413412
-0.0121912 0.459771 -0.0301193
1.38351e-018 -8.89148e-017 5.9287e-018
-0.00800448 0.54733 -0.0346501
0.000643993 0.537167 -0.00228781
0.0121377 0.279226 0.00222222
0.00426567 0.549421 -0.00792098
0.000144078 0.357711 5.9678e-005
0.00922886 0.434576 0.000693622
0.00341799 0.546186 -0.00526354
0.000351756 0.450201 -0.000112513
0.00850738 0.42986 -0.00241201
0.00522058 0.345504 0.00117548
0.0019248 0.469232 -0.00280195
0.00727827 0.266447 0.00611959
0.00183775 0.378405 0.00534105
0.000939403 0.284556 0.00330494
8.31383e-029 1.54517e-030 6.60317e-031
1.39759e-028 2.81886e-030 9.67726e-031
2.49672e-029 2.91191e-031 1.20436e-031
-0.631022 -0.00810317 -0.0036651
-0.594991 -0.00890583 -0.00590381
-0.594698 -0.0100286 -0.00358065
-1.35931e-016 3.43135e-019 -1.88766e-018
-1.60594e-016 -2.95829e-018 -1.3608e-018
-1.52594e-016 -3.13652e-018 -1.85789e-018
7.19522e-031 2.71551e-030 -6.00073e-032
-0.163801 -0.488122 -0.00391679
4.02229e-030 1.99869e-029 1.25569e-031
1.51297e-030 7.39788e-030 -1.3335e-031
-0.0946572 -0.355169 0.00655919
4.39592e-030 -4.11284e-030 -2.65494e-029
-4.27168e-017 -2.08746e-016 7.33959e-018