# vtk DataFile Version 2.0 
output.vtk, Created by Freefem++, via gregorio
ASCII
DATASET UNSTRUCTURED_GRID
POINTS 7451 double
-3.79965 2.23652 0.040848
-4.13429 2.05574 0.276253
-4.09122 2.24524 0.070091
-4.01836 2.27766 0.330071
-3.96697 2.14613 0.158551
-3.94543 2.24088 0.0554695
-3.90901 2.25709 0.185459
-4.11275 2.15049 0.173172
-4.07633 2.1667 0.303162
-4.05479 2.26145 0.200081
-4.81817 0.732763 -0.840268
-4.76136 0.37264 -0.736193
-5.12328 0.495929 -0.550642
-4.73872 0.559667 -0.434419
-4.78977 0.552702 -0.788231
-4.97072 0.614346 -0.695455
-4.77845 0.646215 -0.637344
-4.94232 0.434285 -0.643417
-4.75004 0.466153 -0.585306
-4.931 0.527798 -0.49253
-7.58244 -0.891248 -0.453516
-8 -0.559587 0.124298
-7.26059 -0.264226 0.250847
-7.58828 -0.999993 0.00381
-7.79122 -0.725418 -0.164609
-7.42152 -0.577737 -0.101334
-7.58536 -0.94562 -0.224853
-7.6303 -0.411906 0.187573
-7.79414 -0.77979 0.064054
-7.42444 -0.632109 0.127328
-5.46564 0.048234 0.998836
-5.51396 -0.351144 0.936321
-5.02851 -0.125769 0.598961
-5.56665 -0.148801 0.504295
-5.4898 -0.151455 0.967578
-5.24708 -0.0387675 0.798898
-5.51614 -0.0502835 0.751565
-5.27124 -0.238457 0.767641
-5.5403 -0.249972 0.720308
-5.29758 -0.137285 0.551628
-4.20269 -2.80441 0.102764
-3.63085 -2.57461 -0.287529
-4.13183 -2.29387 0.255347
-4.14432 -2.47254 -0.273935
-3.91677 -2.68951 -0.0923825
-4.16726 -2.54914 0.179055
-4.1735 -2.63848 -0.0855855
-3.88134 -2.43424 -0.016091
-3.88759 -2.52358 -0.280732
-4.13807 -2.38321 -0.009294
-6.25062 -0.085247 0.575431
-6.51584 -0.423084 -0.15939
-6.46019 0.447486 0.293263
-6.75561 -0.174737 0.413139
-6.38323 -0.254165 0.20802
-6.35541 0.181119 0.434347
-6.88822 -0.343655 0.0457285
-6.86039 0.09163 0.272055
-6.48801 0.012201 0.0669365
-4.88162 0.371746 0.655425
-4.51246 -0.112716 0.623981
-4.65723 0.09269 0.995695
-4.69704 0.129515 0.639703
-4.95507 0.122989 0.627193
-4.76942 0.232218 0.82556
-4.77049 -0.119243 0.611471
-4.58484 -0.010013 0.809838
-4.84287 -0.0165395 0.797328
-3.75099 1.20677 0.090288
-3.64118 0.745776 0.266863
-4.09568 0.790235 0.315934
-3.78936 1.07086 0.69071
-3.69609 0.976272 0.178575
-3.92333 0.998502 0.203111
-3.77017 1.13882 0.390499
-3.86843 0.768006 0.291399
-3.71527 0.908319 0.478787
-3.94252 0.930549 0.503322
-2.18572 0.40145 0.915881
-1.75478 0.245881 0.526965
-1.94554 -0.013967 0.999902
-1.76886 0.356252 0.93439
-1.97025 0.323665 0.721423
-2.06563 0.193741 0.957891
-1.97729 0.378851 0.925135
-1.85016 0.115957 0.763433
-1.76182 0.301067 0.730678
-1.8572 0.171143 0.967146
-5.06116 0.824959 0.710182
-4.88551 0.773989 0.80113
-4.92155 0.772883 0.437198
-5.01596 0.602336 0.857802
-4.97333 0.799474 0.755656
-4.99135 0.798921 0.57369
-5.03856 0.713647 0.783992
-4.90353 0.773436 0.619164
-4.95074 0.688163 0.829466
-4.96876 0.687609 0.6475
-2.34262 2.51752 0.051733
-2.4672 2.85727 -0.311185
-2.29554 2.81673 0.086134
-2.65762 2.74748 0.16058
-2.40491 2.6874 -0.129726
-2.31908 2.66712 0.0689335
-2.50012 2.6325 0.106157
-2.38137 2.837 -0.112526
-2.56241 2.80238 -0.0753025
-2.47658 2.7821 0.123357
-3.50303 -3.76846 -0.636668
-3.49422 -3.29308 -1.15018
-3.31427 -3.71149 -1.25136
-2.90724 -3.34218 -0.858121
-3.49863 -3.53077 -0.893424
-3.40865 -3.73997 -0.944014
-3.20514 -3.55532 -0.747394
-3.40425 -3.50228 -1.20077
-3.20073 -3.31763 -1.00415
-3.11076 -3.52683 -1.05474
-4.0054 2.49156 -0.125899
-3.5956 2.50054 -0.194198
-3.83412 2.54803 0.0159
-3.8005 2.49605 -0.160049
-3.90253 2.36404 -0.0425255
-3.91976 2.5198 -0.0549995
-3.69763 2.36853 -0.076675
-3.71486 2.52428 -0.089149
-3.81689 2.39228 0.028374
-3.73452 -3.68531 -1.05781
-3.52439 -3.6984 -1.15459
-3.61437 -3.4892 -1.104
-3.61877 -3.72688 -0.84724
-6.37864 0.944563 0.328331
-6.25891 0.813305 0.581838
-6.65332 0.772267 0.635298
-6.31878 0.878934 0.455085
-6.41941 0.696025 0.310797
-6.51598 0.858415 0.481815
-6.35955 0.630395 0.43755
-6.45612 0.792786 0.608568
-6.55675 0.609877 0.46428
1.62066 -0.841518 -0.540229
1.89324 0.238579 -0.195511
2.01627 -0.690819 -0.723027
2.25185 -0.211859 0.261412
1.75695 -0.30147 -0.36787
1.81846 -0.766169 -0.631628
1.93625 -0.526689 -0.139408
1.95475 -0.22612 -0.459269
2.07254 0.01336 0.0329505
2.13406 -0.451339 -0.230807
-2.56949 2.06853 0.305158
-2.91403 1.60744 0.564909
-3.02709 2.08175 0.021586
-2.87501 2.07662 0.630995
-2.74176 1.83799 0.435033
-2.79829 2.07514 0.163372
-2.72225 2.07258 0.468077
-2.97056 1.8446 0.293247
-2.89452 1.84203 0.597952
-2.95105 2.07919 0.32629
-5.39985 0.358755 0.933432
-5.34934 0.453264 0.543553
-5.56264 0.558471 0.829524
-5.70805 0.297641 0.954678
-5.37459 0.40601 0.738492
-5.48124 0.458613 0.881478
-5.55395 0.328198 0.944055
-5.45599 0.505868 0.686538
-5.52869 0.375452 0.749116
-5.63535 0.428056 0.892101
-4.17913 0.323834 -0.696515
-4.36183 0.516245 -0.417662
-4.60784 0.019305 -0.528365
-4.46586 0.364911 -0.72315
-4.27048 0.42004 -0.557088
-4.39349 0.17157 -0.61244
-4.3225 0.344372 -0.709832
-4.48483 0.267775 -0.473013
-4.41384 0.440578 -0.570406
-4.53685 0.192108 -0.625757
-5.9377 0.438799 -0.558905
-5.87927 0.529091 -0.848565
-6.25926 0.555743 -0.831354
-6.07929 0.245277 -0.969453
-5.90849 0.483945 -0.703735
-6.09848 0.497271 -0.695129
-6.00849 0.342038 -0.764179
-6.06927 0.542417 -0.839959
-5.97928 0.387184 -0.909009
-6.16928 0.40051 -0.900404
-3.64743 2.72944 0.180305
-3.74077 2.63873 0.0981025
-3.72354 2.48298 0.110576
-3.62151 2.61499 -0.0069465
-3.98168 0.388062 0.141859
-3.76543 0.320245 0.603448
-3.81143 0.566919 0.204361
-3.70331 0.533011 0.435156
-4.03868 0.589149 0.228897
-3.87356 0.354154 0.372653
-3.93055 0.55524 0.459691
-6.17342 0.027823 -0.593282
-6.59748 0.255766 -0.966739
-6.35964 0.547779 -0.240473
-6.21634 0.291783 -0.712318
-6.42837 0.405755 -0.899047
-6.30945 0.551761 -0.535914
-6.38545 0.141794 -0.78001
-6.26653 0.287801 -0.416878
-6.47856 0.401772 -0.603606
-5.98474 0.742767 -0.66955
-5.96122 0.590783 -0.614227
-6.122 0.649255 -0.750452
-5.93201 0.635929 -0.759057
-5.86659 0.345457 -0.129882
-5.96054 -0.099592 -0.035866
-6.02 0.18664 -0.361582
-6.11312 0.446618 -0.185177
-5.91357 0.122933 -0.082874
-6.06698 -0.0358845 -0.314574
-6.16009 0.224094 -0.13817
-1.10421 0.363269 -0.931684
-0.773878 0.737644 -0.67519
-0.520452 0.269543 -0.962988
-0.384634 0.008888 -0.353445
-0.939043 0.550457 -0.803437
-0.812329 0.316406 -0.947336
-0.74442 0.186079 -0.642564
-0.647165 0.503594 -0.819089
-0.579256 0.373266 -0.514317
-0.452543 0.139215 -0.658216
-2.85287 -3.00249 -1.21636
-3.23054 -2.92385 -1.196
-3.06719 -3.3306 -1.25351
-2.88006 -3.17233 -1.03724
-3.06889 -3.13301 -1.02706
-2.98722 -3.33639 -1.05581
-3.0417 -2.96317 -1.20618
-2.96003 -3.16654 -1.23493
-3.14886 -3.12722 -1.22475
-3.38618 -2.05134 -0.098565
-2.37808 -2.56123 -0.134541
-2.49252 -2.47812 0.422472
-2.41131 -1.89586 0.044632
-2.88213 -2.30628 -0.116553
-2.93935 -2.26473 0.161954
-2.89875 -1.9736 -0.0269665
-2.4353 -2.51967 0.143966
-2.39469 -2.22855 -0.0449545
-2.45192 -2.18699 0.233552
-1.85713 -0.413967 0.42138
-1.65927 -0.390905 0.920431
-1.2503 -0.077569 0.384148
-1.80595 -0.084043 0.474172
-1.70702 -0.072512 0.723698
-1.50254 0.084156 0.455557
-1.7582 -0.402436 0.670905
-1.55371 -0.245768 0.402764
-1.45478 -0.234237 0.652289
-2.09043 2.55218 0.167395
-2.0659 2.66009 -0.048555
-2.19298 2.68445 0.126765
-2.18072 2.73841 0.0187895
-2.07816 2.60614 0.05942
-2.21652 2.53485 0.109564
-2.20426 2.58881 0.001589
-4.01665 2.44382 0.136481
-3.97233 2.67361 0.084512
-3.92539 2.49592 0.0761905
-3.99449 2.55872 0.110496
-4.01103 2.46769 0.005291
-3.90323 2.61082 0.050206
-3.98887 2.58259 -0.0206935
-3.92754 1.80484 -0.220103
-4.28096 1.83407 -0.225431
-4.13592 1.88983 -0.461486
-4.146 2.03152 -0.278406
-4.10425 1.81945 -0.222767
-4.03173 1.84734 -0.340795
-4.03677 1.91818 -0.249254
-4.20844 1.86195 -0.343458
-4.21348 1.9328 -0.251918
-4.14096 1.96068 -0.369946
-4.04038 -5 0.949212
-3.62468 -5 1.26221
-3.84559 -4.54287 1.07336
-3.71487 -5 0.728948
-3.83253 -5 1.10571
-3.94299 -4.77144 1.01129
-3.87763 -5 0.83908
-3.73513 -4.77144 1.16779
-3.66977 -5 0.99558
-3.78023 -4.77144 0.901156
-1.37334 0.812082 -0.583544
-0.975724 0.961208 -0.275823
-1.19336 -0.166381 -0.273753
-1.17453 0.886645 -0.429683
-1.07361 0.774863 -0.629367
-1.28335 0.32285 -0.428648
-0.874801 0.849426 -0.475506
-1.08454 0.397413 -0.274788
-0.983618 0.285631 -0.474471
-3.83515 -1.82017 -0.741539
-3.34976 -1.58414 -0.592596
-3.50394 -2.07825 -1.02313
-3.59245 -1.70215 -0.667067
-3.66955 -1.94921 -0.882335
-3.61067 -1.93575 -0.420052
-3.42685 -1.83119 -0.807863
-3.36797 -1.81774 -0.345581
-3.44506 -2.06479 -0.560848
-2.72946 0.769161 0.094533
-2.75119 0.681139 -0.326037
-2.98528 1.02631 -0.281501
-3.08113 0.734324 -0.34324
-2.74032 0.72515 -0.115752
-2.85737 0.897737 -0.093484
-2.90529 0.751742 -0.124353
-2.86823 0.853726 -0.303769
-2.91616 0.707731 -0.334639
-3.03321 0.880319 -0.31237
-2.94023 -2.47675 -0.674772
-3.14499 -2.03044 -0.633684
-3.22209 -2.2775 -0.848951
-3.16321 -2.26404 -0.386669
-3.03914 -4.25341 0.579285
-2.64287 -3.80807 0.20828
-2.47531 -4.18593 0.714333
-2.97264 -3.41482 0.618231
-2.84101 -4.03074 0.393783
-2.75723 -4.21967 0.646809
-3.00589 -3.83412 0.598758
-2.55909 -3.997 0.461307
-2.80776 -3.61144 0.413255
-2.72397 -3.80037 0.666282
-2.39684 -0.595487 -0.803365
-1.98884 -0.54749 -0.836812
-2.24172 -0.466498 -0.098067
-2.21295 -0.01831 -0.514797
-2.19284 -0.571489 -0.820088
-2.31928 -0.530992 -0.450716
-2.3049 -0.306899 -0.659081
-2.11528 -0.506994 -0.46744
-2.1009 -0.2829 -0.675804
-2.22734 -0.242404 -0.306432
-3.36239 -4.55484 -1.31864
-3.11171 -4.25429 -0.873787
-2.86199 -4.55394 -1.36046
-2.79118 -5 -0.96439
-3.23705 -4.40456 -1.09621
-3.11219 -4.55439 -1.33955
-3.07678 -4.77742 -1.14151
-2.98685 -4.40411 -1.11712
-2.95144 -4.62714 -0.919088
-2.82658 -4.77697 -1.16243
-3.88203 2.65205 -0.416886
-3.48121 2.84727 -0.340672
-3.82273 3 -0.474998
-3.72541 2.76868 -0.627028
-3.68162 2.74966 -0.378779
-3.85238 2.82603 -0.445942
-3.80372 2.71037 -0.521957
-3.65197 2.92364 -0.407835
-3.60331 2.80798 -0.48385
-3.77407 2.88434 -0.551013
[...]
POINT_DATA 7451
 
FIELD FieldData 2
velocity 3 7451 double
-0.121485 -0.348057 0.00889193
1.54657e-030 3.48742e-030 -1.80294e-031
4.52267e-031 1.23593e-030 -5.31269e-032
1.29119e-030 3.45925e-030 -1.64304e-031
-0.0826479 -0.201718 0.0105002
-0.0723834 -0.199587 0.00853573
-0.0794829 -0.229376 0.0112903
-1.86436e-018 -4.49388e-018 2.88484e-019
5.59516e-018 1.38397e-017 -1.00613e-018
1.91326e-029 -8.20374e-030 -4.46376e-030
8.9495e-030 3.00152e-030 -1.92824e-031
-0.405831 -0.108762 0.00076049
-0.61864 -0.141596 0.00682597
-0.696509 -0.228314 0.00551061
-0.224542 -0.0765931 0.00669102
-0.30292 -0.0926422 0.0094149
-0.400583 -0.146052 0.00879846
-0.528271 -0.133516 0.00652966
-0.584752 -0.17344 0.00484839
-0.667069 -0.19102 0.00771061
9.5945e-029 -2.87537e-031 2.76906e-032
-0.836117 0.00717346 -0.000596954
-1.08807 -9.79632e-007 -0.000533717
5.54424e-029 -2.20316e-031 5.1951e-032
-0.545273 0.003299 3.39994e-005
-0.82487 -7.1487e-005 -0.00250058
-1.32844e-016 2.36331e-019 -3.14894e-019
-0.993303 0.00122394 -5.15311e-005
-0.473832 0.00623784 -0.000813101
-0.732849 0.00187436 -0.000169132
3.26827e-029 3.35626e-030 5.88421e-032
2.15296e-029 1.36658e-030 2.81032e-031
-0.691523 -0.10183 -0.0134467
-0.87271 -0.0603635 -0.00496891
-1.0472e-016 -6.67428e-018 -1.47911e-018
-0.418175 -0.0475455 -0.00389664
-0.520263 -0.0330447 -0.00346139
-0.399204 -0.0308503 -0.00754031
-0.499716 -0.022884 -0.00495613
-0.787687 -0.0833495 -0.00829518
-4.32249e-030 -6.6172e-029 1.28244e-030
0.0270183 0.4543 0.0062988
-4.72088e-030 -7.80869e-029 1.74095e-030
-8.44828e-031 -1.01915e-029 -5.91948e-032
0.0242344 0.300626 -0.00122965
-6.4699e-017 -5.87242e-016 1.21829e-017
-4.1117e-018 -4.18043e-017 2.77887e-019
0.0274602 0.352574 -0.00281133
0.0228009 0.26739 0.00211319
-5.91003e-017 -6.31679e-016 6.18717e-018
-0.819826 -0.015938 -0.00240127
-0.988765 -0.00963564 -0.00201462
-0.891293 -0.0126815 -0.00105821
-0.996481 -0.00265073 -0.00098822
-1.11538 -0.0169622 -0.0030575
-0.97145 -0.0167914 -0.00234431
-1.09947 -0.00463353 -0.0036609
-1.15271 -0.00254595 -0.000537881
-1.25036 -0.0167619 -0.00156651
-0.556651 -0.182503 0.00450332
-0.563904 -0.0996553 -0.0195636
1.86091e-029 5.05718e-030 1.91438e-031
-0.615777 -0.16132 -0.00785756
-0.680352 -0.150636 -0.00375911
-0.306183 -0.107101 0.00317936
-0.627456 -0.108981 -0.01844
-0.33866 -0.0914955 -0.010001
-0.385919 -0.0826122 -0.00808434
-0.422271 -0.447975 -0.0181284
-0.456645 -0.259853 -0.0400066
-0.594552 -0.328441 -0.0107797
-0.234354 -0.291859 0.00106294
-0.455766 -0.378092 -0.0316669
-0.509872 -0.389978 -0.0154281
-0.385578 -0.407073 -0.0112555
-0.542835 -0.302604 -0.0252942
-0.378419 -0.320239 -0.0181052
-0.414595 -0.326786 -0.00403158
-1.69014e-029 -5.85823e-030 8.82112e-031
0.342372 0.0468146 -0.00414272
-2.04083e-029 -5.65279e-030 -4.10662e-031
-4.31355e-030 -1.85128e-031 2.51379e-033
0.184393 0.0259196 -0.00415387
5.9182e-017 3.44856e-018 2.44656e-018
3.15982e-018 1.78703e-019 -5.88079e-021
0.209613 0.0145949 -0.000556195
0.195557 0.00929439 0.00169398
-6.81081e-017 -1.40294e-019 -9.34117e-019
2.4743e-017 1.1473e-017 -6.81492e-019
2.74216e-030 1.24608e-030 -5.22217e-032
-0.502199 -0.2068 0.00842242
2.92972e-030 1.19369e-030 -5.46668e-032
1.2374e-017 6.18358e-018 -3.82063e-019
-0.283423 -0.124904 0.00645389
9.73287e-017 4.3599e-017 -3.49926e-018
-0.283488 -0.136315 0.00750838
1.50771e-016 7.70853e-017 -3.3974e-018
-0.312608 -0.133011 0.00563695
-0.0329707 -0.237176 -0.0119241
-0.0202243 -0.255472 -0.00797418
-0.0124766 -0.235865 -0.00594345
-0.0515243 -0.495481 -0.0127215
-0.0287133 -0.270152 -0.00993459
-0.0229504 -0.23762 -0.00909083
-0.0450468 -0.37786 -0.0139695
-0.0185417 -0.272485 -0.00837698
-0.0377854 -0.399587 -0.0107237
-0.0316951 -0.381665 -0.00987594
0.0117589 0.289355 0.00988448
-6.73001e-031 -2.17055e-029 -1.11516e-030
-3.38918e-031 -1.64394e-029 -9.35701e-031
-0.00173161 0.234157 0.013576
0.00657959 0.148876 0.00823849
0.00573526 0.145677 0.00822991
0.0049163 0.291273 0.0129723
2.2244e-029 2.25299e-030 6.45913e-029
0.00229576 0.136888 0.00926767
0.00113324 0.11741 0.00831074
9.68338e-031 3.594e-030 -9.48186e-032
-0.0905377 -0.376676 0.00389058
-0.048422 -0.230613 0.00458091
-0.058195 -0.235838 0.0059936
-0.0602841 -0.1952 0.00571771
-0.0276833 -0.118091 0.0031569
-0.109924 -0.375125 0.00552072
-0.0760059 -0.332896 0.00540559
-0.0820274 -0.288089 0.0070262
-2.72545e-031 -4.84559e-030 -2.37277e-031
-3.7315e-018 -6.87385e-017 -4.89001e-018
3.62923e-018 6.1649e-017 4.29343e-018
0.00791377 0.142125 0.00689415
1.02054e-029 1.73653e-031 4.47946e-033
1.35197e-029 2.2374e-031 1.76695e-032
1.76348e-029 1.87899e-031 4.5814e-032
6.88781e-017 1.51808e-018 9.57112e-020
-0.514647 -0.0126167 -0.000609204
-4.89686e-030 -4.52603e-029 -2.2864e-029
-0.505259 -0.00638083 -0.000717874
-1.79924e-017 -1.82012e-019 1.77797e-019
-0.514028 -0.00576291 -0.00108438
-1.48264e-028 3.79304e-031 -6.83315e-032
0.477013 0.00050993 0.000688078
-5.48562e-029 4.34585e-032 -1.27877e-031
0.464743 -0.0021327 0.0012763
0.409638 -0.00129792 0.000280895
-6.58165e-017 4.787e-020 -2.95252e-019
0.369957 -0.000268699 0.00131447
0.387787 0.000636842 0.000852714
0.52609 -0.00106071 0.00158908
0.391118 -0.00118219 0.00169544
-0.0792508 -0.32264 -0.0246169
-0.116111 -0.326637 -0.0295762
-0.168348 -0.537637 -0.0222811
-0.0886104 -0.387926 -0.0182114
-0.105162 -0.350969 -0.0294995
-0.132652 -0.47852 -0.0287238
-0.0919923 -0.385246 -0.0250938
-0.17501 -0.507059 -0.0317641
-0.105756 -0.364302 -0.0242875
-0.148959 -0.537737 -0.0261576
3.08879e-030 4.07109e-031 -6.8345e-032
-0.660492 -0.121236 0.00973285
6.67847e-030 5.32836e-031 -1.17801e-031
2.96067e-029 1.96409e-030 -1.52419e-031
-0.372825 -0.0491819 0.010233
-9.70423e-017 -7.7114e-018 3.4227e-018
1.34994e-016 6.21388e-018 -3.97782e-018
-0.36058 -0.0434727 0.00885285
-0.376264 -0.0307156 0.00697526
-2.20149e-017 -7.19422e-019 7.81246e-019
-0.398156 -0.102184 -0.0143453
-0.676177 -0.230086 -0.0110837
-0.718173 -0.112286 -0.00642001
-0.403571 -0.117752 -0.00522124
-0.558657 -0.16881 -0.0137775
-0.574556 -0.118162 -0.011186
-0.405371 -0.114206 -0.0095593
-0.73204 -0.17271 -0.0112177
-0.570323 -0.180518 -0.00664244
-0.585319 -0.127075 -0.00627775
-0.619452 -0.0137182 0.00167073
3.32277e-030 4.04226e-032 -5.68998e-033
2.95548e-029 3.70485e-031 -1.46894e-031
1.36163e-029 1.89218e-031 -2.58202e-032
-0.334394 -0.00345213 0.0011596
-0.331895 -0.00635445 0.0027318
-0.362072 -0.00435008 0.0019285
-2.37518e-016 -1.9634e-018 2.03573e-018
-1.71747e-016 -2.79163e-019 1.00042e-018
-1.09402e-029 -2.14797e-029 4.82118e-029
-0.0581226 -0.394654 0.00503724
-0.0554043 -0.320553 0.00519554
-0.0858392 -0.368558 0.0062393
-0.0789608 -0.415979 0.00407393
-0.727935 -0.146972 -0.0372154
-0.400598 -0.0457126 -0.0155773
-0.59231 -0.199065 -0.0409236
-0.454033 -0.145029 -0.031309
-0.681776 -0.256326 -0.0256451
-0.602985 -0.0962693 -0.0296991
-0.536323 -0.20632 -0.0169848
-0.800729 -0.0105568 0.00052057
-3.62985e-017 4.10184e-020 8.03492e-020
-0.80141 -0.00923397 0.0032327
-0.501516 -0.00747107 0.0029172
-2.47377e-029 -3.06858e-029 6.05126e-029
-0.501774 -0.00588951 0.00442192
-0.455708 -0.00800652 0.00168964
-0.929608 -0.0128503 0.00288607
-0.583981 -0.00297943 0.00294137
5.36932e-030 9.61994e-032 -5.3739e-033
-0.338962 -0.00652438 0.00186004
-7.66125e-017 -1.27706e-018 1.66821e-018
-1.01197e-016 -8.67563e-019 6.07879e-019
-1.0976 -0.0508295 0.00240017
-1.22811 -0.0412168 -0.00307156
-1.04519 -0.0267472 0.000503018
-0.965656 -0.0224298 0.00309553
-1.22667 -0.0500851 3.0006e-005
-1.12195 -0.0264012 -0.00141608
-1.16937 -0.0273313 0.0012609
1.96078e-017 -1.67638e-019 -3.1313e-019
-4.84431e-029 4.42175e-031 4.76661e-031
-1.79791e-029 5.18282e-032 9.63183e-032
0.468462 -0.00431814 -0.000910276
-3.01563e-017 2.96426e-019 4.41974e-019
1.33668e-029 -3.25189e-029 9.8304e-029
0.287089 -0.00287254 -0.00292898
-3.11003e-017 1.01651e-019 3.22659e-019
0.321166 -0.00352115 -0.00236131
0.290176 0.0001295 -0.00200627
8.07351e-032 -7.3591e-030 -5.74939e-031
-3.29581e-031 -2.30483e-029 -1.40464e-030
-6.39106e-033 -2.6948e-030 -2.01561e-031
-0.0013197 0.119445 0.00917796
0.00206706 0.126492 0.0100298
5.36488e-005 0.115406 0.00816159
-7.1639e-019 -5.72243e-017 -6.83655e-018
-8.88716e-020 2.61506e-017 2.34291e-018
-1.32628e-018 -5.54307e-017 2.53207e-018
0.021872 0.741085 -0.00104489
-0.0259226 0.538375 0.00296314
-0.0274089 0.68777 -0.0285746
-0.0282254 0.67764 -0.0123066
-0.00748249 0.785463 0.00265772
-0.00393086 0.906584 -0.0165541
-0.00679113 0.88295 -0.00766865
-0.0281307 0.671773 -0.0094928
-0.0272179 0.608959 -0.00220684
-0.0292647 0.711634 -0.0216062
0.362281 0.15388 0.0218908
-2.63408e-029 -1.52459e-030 -1.47019e-031
0.449109 0.0135251 -0.00251143
0.40209 0.0983622 0.000741612
0.243178 0.00587738 -0.000672093
0.415743 0.0300569 -0.00104759
0.194387 0.00434458 0.00788256
0.407095 0.0487547 -0.00214797
0.265522 0.000268048 -0.00325158
-1.97224e-018 -2.68835e-017 -1.01109e-018
1.10511e-031 1.26397e-030 5.46167e-032
-0.00756025 -0.119503 -0.00376264
-0.00810151 -0.115447 -0.0034495
-4.18485e-018 -5.19658e-017 -1.88312e-018
-0.0164957 -0.129134 -0.00649596
-0.0152401 -0.122352 -0.00709826
-7.4041e-018 -2.98682e-017 1.03263e-018
2.84177e-031 1.80454e-030 -3.5076e-032
-0.0311149 -0.133079 0.00389139
1.24744e-017 6.61338e-017 -1.43748e-018
2.05586e-029 -6.76632e-030 -1.24689e-031
-0.0211859 -0.131148 0.00163598
2.19008e-017 1.18956e-016 -2.22261e-018
-0.182634 -0.29597 0.0074799
1.47331e-030 2.06709e-030 -1.07466e-031
6.96648e-031 1.12355e-030 -5.33501e-032
5.23026e-031 9.13738e-031 -4.48032e-032
-0.112315 -0.169922 0.00895038
-0.102825 -0.165169 0.00792095
-0.0998369 -0.170096 0.00815288
-5.13288e-017 -7.75621e-017 5.44341e-018
-3.21968e-016 -5.11679e-016 3.5607e-017
-1.97788e-016 -3.32676e-016 2.19094e-017
-1.24071e-031 -3.53828e-030 1.342e-031
-1.84002e-031 -9.90696e-030 4.33495e-031
-5.92413e-031 -1.74583e-029 8.76857e-031
0.00950502 0.364924 -0.0105234
-3.25842e-018 -1.35052e-016 6.06075e-018
-5.40097e-019 -1.56193e-017 7.6802e-019
0.00612223 0.212038 -0.00706756
8.13714e-019 2.89679e-017 -1.5851e-018
0.00545923 0.253463 -0.0108962
0.00836469 0.251938 -0.0120365
-5.59599e-029 -1.38604e-031 1.22875e-030
-5.87543e-029 3.3098e-031 6.24461e-031
0.471758 -0.010357 -0.000104239
2.49319e-017 4.32301e-020 -6.23804e-019
-2.71343e-017 1.55022e-019 6.13139e-019
0.378168 -0.00277915 -0.00815468
-6.16991e-017 5.15976e-019 6.14917e-019
0.4139 -0.00143496 -0.00581348
0.364867 -0.00529681 -0.00335737
6.1414e-020 9.18543e-019 4.52692e-020
0.00731836 0.411114 0.0176316
-2.23104e-030 -6.31768e-029 -2.38065e-030
0.00843528 0.223647 0.0110907
-4.42858e-018 -7.09275e-017 -9.63919e-018
0.0201242 0.404479 0.0105421
0.00776161 0.189958 0.0126422
0.0149788 0.606524 0.0116674
0.0160828 0.394258 0.0154377
0.0209497 -0.0553554 -0.0422363
0.0195241 -0.00818141 -0.0307934
-0.126811 -0.208462 -0.0325338
-0.132694 -0.0981391 -0.0435331
0.0185504 -0.0407703 -0.0407338
-0.0604516 -0.157396 -0.0409104
-0.0608695 -0.098705 -0.0490425
-0.0442866 -0.0919182 -0.0294968
-0.0499162 -0.0510264 -0.0375939
-0.123904 -0.15702 -0.0385382
-0.00179278 0.377496 0.0185632
0.00697565 0.42428 0.0187063
0.00722279 0.228566 0.013934
0.00912939 0.605935 0.0144698
0.000705556 0.622714 -0.0218994
-0.0160777 0.671112 -0.00968516
-0.0165229 0.483644 -0.0247399
-0.000784888 0.682635 -0.0336361
-0.00812074 0.693649 -0.0159919
-0.00943135 0.600217 -0.025257
0.000365542 0.653386 -0.0283884
-0.0184493 0.615887 -0.0180771
-0.0102108 0.721765 -0.0193502
-0.0123594 0.611263 -0.0301134
1.76989e-017 5.371e-017 3.68076e-018
5.62005e-017 1.38494e-018 1.19459e-019
0.39628 0.449238 -0.0193668
0.297495 0.109502 -0.0247313
1.37794e-029 3.77005e-029 4.25022e-029
0.263133 0.298684 -0.0143991
0.199093 0.112854 -0.0177199
0.296217 0.170133 -0.0168665
0.228714 0.0577114 -0.0123212
0.379517 0.257066 -0.0272752
8.42156e-019 2.04624e-017 1.64355e-018
0.00211495 0.216752 0.0091251
1.9896e-031 -1.40014e-029 -5.50825e-031
-0.0017615 0.162412 0.00350614
0.0024251 0.100265 0.00598223
1.41558e-018 3.10008e-017 4.16945e-018
0.000642409 0.0901554 0.00357494
2.89242e-005 0.0995422 0.00547668
-0.000680397 0.193986 0.00563325
-0.00107805 0.0785613 0.00304574
6.38148e-031 3.47526e-030 -7.2258e-032
-0.0415806 -0.32723 0.002386
6.00146e-031 1.11796e-029 -1.19993e-031
1.01713e-030 5.07192e-030 -9.21347e-032
-0.0280469 -0.192554 0.00379497
-2.88643e-017 -2.45534e-016 5.721e-018
2.28642e-029 -5.00045e-030 1.59447e-029
-0.01807 -0.186502 0.00241784
-0.0260123 -0.178323 0.00189377
-2.31203e-017 -1.99726e-016 3.09562e-018
0.506856 -0.000298955 -0.000149278
-2.04864e-029 2.50972e-032 -5.69099e-033
-2.12977e-029 1.49878e-032 4.11166e-033
-3.6266e-029 5.07854e-032 5.87611e-033
0.342357 0.000143446 -6.14272e-005
0.343909 -0.000148991 -0.00022579
0.341862 -0.000286135 5.75172e-005
-1.92219e-016 -6.39188e-020 9.4404e-020
1.30231e-029 -1.19654e-021 -1.77382e-029
2.50748e-017 -1.65669e-020 -5.43056e-021
0.196297 0.727993 -0.0405788
-0.0123199 0.820495 -0.0227849
-0.0177597 0.879856 -0.0763977
0.0353121 0.733767 -0.00144114
0.0894621 0.900066 -0.0445952
0.0661641 0.845146 -0.066058
0.134261 0.840988 -0.0340459
-0.0187314 0.973241 -0.0558745
0.0511241 0.838253 -0.0142033
0.0418492 0.974326 -0.0480659
-7.66655e-029 1.06891e-031 3.13364e-032
-4.51904e-029 9.27495e-032 1.0362e-031
-5.60691e-029 4.39239e-031 -3.38621e-032
0.464652 -0.00384547 -1.63882e-005
3.85758e-019 1.00877e-019 -7.09836e-022
3.79094e-019 -1.86917e-020 -5.92407e-022
0.367531 4.66341e-005 -0.00134431
8.95724e-019 -1.96577e-022 3.52466e-030
0.328472 0.000434117 -0.0011316
0.3735 -0.00245992 0.000541162
8.31743e-030 4.83201e-030 -2.44674e-031
-0.388388 -0.235078 0.0119276
2.83408e-030 1.67715e-030 -1.04745e-031
-0.265067 -0.169584 0.00983027
-0.257501 -0.137432 0.00776006
5.67262e-016 3.81812e-016 -2.81275e-017
-0.445525 -0.224199 0.0100267
-0.234475 -0.153478 0.0112741
-0.24731 -0.13564 0.00788203
-0.828389 0.000803346 0.00589458
1.81558e-028 -2.20324e-031 -2.62495e-031
1.3517e-029 -8.56192e-032 -1.68231e-031
-0.827229 0.00500802 0.00288335
-0.548883 0.00259207 0.00271831
-0.494716 -0.000465497 0.00625351
-0.91545 0.00392702 0.00349637
-2.33657e-029 3.35722e-029 6.24766e-029
-0.466868 0.00422367 0.00185824
-0.499071 0.00629015 0.00346867
-3.66024e-029 3.68818e-031 2.48418e-031
-1.34312e-029 2.22737e-031 1.69214e-031
-2.07775e-029 -8.2313e-031 8.99938e-032
-4.51437e-017 1.99777e-018 3.97046e-019
-1.16951e-018 1.95746e-020 3.95851e-020
0.293834 -0.00266932 -0.00190236
-1.60611e-017 4.32977e-019 6.02515e-019
0.271538 -0.00565049 -0.00235089
0.281211 0.00356554 -0.0112166
-8.00719e-029 1.27226e-030 -2.49886e-031
0.375533 -0.00611903 0.00037544
0.314293 -0.00923614 0.0018864
0.340446 -0.00673568 0.000737266
0.521295 -0.00762322 -0.000201632
0.538473 -0.00520751 -0.000192753
0.474434 -0.00980639 -0.000627913
-1.7542e-029 -1.2304e-031 1.40154e-032
-3.29337e-029 4.60014e-031 -2.0603e-032
5.31726e-017 -2.62615e-018 -2.9759e-019
4.64255e-017 -2.73324e-018 -4.24413e-019
0.275261 -0.00350234 -0.000708315
4.16411e-018 -2.10024e-019 -4.91378e-020
0.282861 -0.00422321 -0.00279709
-6.13527e-029 2.3628e-031 2.49231e-031
0.464226 0.00162901 -0.000671898
-4.08296e-029 1.35111e-031 1.07877e-031
0.285199 -0.00145552 -0.000798747
-9.62285e-017 1.31328e-019 6.952e-019
0.364841 -0.00287743 -0.00186897
0.296703 -3.51167e-005 -0.000785056
0.486614 -0.00143058 -0.000781304
0.31338 0.000679903 -0.00219092
-1.64283e-029 1.23461e-031 -1.33265e-031
-4.83596e-029 1.0042e-032 -3.17885e-031
-5.63182e-029 3.1095e-031 -2.72251e-031
3.29699e-017 -5.218e-019 8.25226e-019
-3.54765e-017 6.0336e-019 -7.88944e-019
0.288294 -0.00379439 0.0056917
-2.31688e-017 3.2533e-019 -3.82794e-019
0.299755 -0.00290111 0.00384895
0.299555 -0.00331767 0.00285173
1.41518e-030 -8.23986e-030 4.30964e-031
-0.178319 0.116702 -0.020925
1.93523e-030 -3.77622e-030 5.55607e-031
0.0736055 0.220895 -0.0271487
-0.0595708 0.0852526 -0.00555702
-1.35732e-017 6.92989e-018 4.9833e-020
0.00826688 0.137654 -0.0067722
-0.0674521 0.043155 -0.00503878
-0.068147 0.182065 -0.0222613
-0.00413772 0.0771714 -0.0076631
-6.64981e-030 -3.50831e-030 -7.49583e-031
-5.33686e-029 -7.37469e-030 -8.47839e-031
-9.03439e-030 -1.92654e-029 2.78077e-031
0.204194 0.041859 0.0327084
0.241631 0.0844029 0.0187539
0.253902 0.191069 0.0472326
2.82548e-030 5.26147e-029 -3.26148e-029
5.5576e-017 5.10159e-017 1.16783e-017
-6.93178e-017 -4.37727e-017 -1.21356e-017
-2.14836e-029 -8.96241e-032 1.02445e-032
1.46807e-029 4.36136e-019 -6.9402e-029
6.14543e-017 -1.75332e-018 1.02576e-020
0.304877 -0.00135932 0.0016136
-0.0936784 -0.266914 0.00271275
1.62228e-030 3.30647e-030 -5.11562e-032
-0.151749 -0.264733 -0.00469834
3.60937e-030 8.15108e-030 5.00916e-032
-0.0600854 -0.138304 0.0036245
-0.12677 -0.274512 -0.000902475
-0.0605012 -0.146286 0.00224687
-0.0837495 -0.152698 0.00156726
9.93599e-018 1.96344e-017 -4.58715e-019
-0.0732015 -0.139882 -0.000173379
-0.28375 -0.324635 -0.0296662
-0.264083 -0.486873 -0.02923
-0.117749 -0.184622 -0.0154647
-0.218154 -0.280851 -0.0359842
-0.282464 -0.416347 -0.0303883
-0.19557 -0.27347 -0.0244791
-0.221342 -0.368517 -0.0372956
-0.132177 -0.206786 -0.0214185
-0.209969 -0.365205 -0.0282002
0.462529 0.00154755 9.83364e-005
-9.64915e-029 -2.57397e-031 3.42144e-031
-3.96095e-029 -1.83545e-031 5.13571e-032
0.475296 0.00205807 -0.000726925
0.302612 0.00236677 -0.000844394
0.286149 0.00236337 0.000642216
0.482233 0.00253037 -0.00101549
4.22053e-029 -8.46951e-030 -1.06344e-028
0.395567 -0.00144519 -0.00154103
0.348188 -0.000378853 -0.000320042
-1.73608e-029 2.50799e-032 1.70713e-032
-4.59562e-029 1.58611e-032 -8.05947e-033
-8.57423e-029 3.9217e-032 4.75211e-032
1.32083e-029 4.80113e-029 8.46084e-029
0.290603 -0.000441812 -0.000241037
6.32543e-017 3.01299e-019 -3.26671e-020
0.318351 0.000638916 0.000458431
-2.9892e-017 -9.49644e-020 2.5176e-020
0.290549 -6.47729e-005 -0.000393264
-2.59734e-029 4.54123e-032 -2.88917e-032
-5.03491e-029 5.15595e-032 -1.07107e-031
0.50286 -0.000562481 0.000231073
-8.69542e-029 1.19047e-031 -2.08634e-031
8.27206e-017 -1.93959e-019 4.01658e-019
0.38109 -0.000831247 0.00073084
-6.52635e-017 3.57319e-019 -1.63557e-019
0.391538 -0.000672068 0.00191542
3.09697e-017 5.70919e-020 2.0401e-019
0.371498 -0.00219385 0.000640653
0.461556 0.00117304 -0.000626008
-9.62737e-029 3.18225e-032 1.00904e-031
0.529764 0.000143536 -6.04222e-005
0.339255 0.000271757 -0.000390431
0.464647 0.00199625 0.00041901
0.370662 -0.00148392 0.00108606
0.536078 0.00196245 -0.000912674
0.377258 0.000810602 -0.000342224
1.28533e-029 1.26777e-031 -9.66303e-032
-0.343393 -0.0053486 0.00458193
8.32066e-017 9.19358e-019 -5.18564e-018
-0.457069 -0.00489439 0.00468251
-0.7443 -0.0108304 0.00426212
1.20275e-030 -5.10332e-029 3.02193e-030
1.47773e-031 -9.37513e-029 5.40225e-030
-0.00923749 0.572933 -0.0332672
-1.7482e-005 0.574606 -0.0339371
-0.0114679 0.397168 -0.0247972
1.28373e-018 -7.4992e-017 4.91706e-018
-0.00747007 0.468347 -0.0284669
0.000664248 0.585794 0.00230376
0.0126391 0.308234 0.00428462
0.00443755 0.579681 -0.00369008
0.000204384 0.402771 0.00273913
0.009671 0.480668 0.00432445
0.00360541 0.586578 -0.000998539
0.000432837 0.501089 0.00332519
0.00878354 0.471902 0.000883571
0.00558191 0.385401 0.00368461
0.00214036 0.519783 0.000667069
0.00770716 0.28907 0.00784125
0.0019123 0.419003 0.00829997
0.00100915 0.312045 0.00530297
8.41997e-029 1.55907e-030 6.30602e-031
1.41414e-028 2.87454e-030 9.20806e-031
2.53039e-029 2.97898e-031 1.14196e-031
-0.622441 -0.00802202 -0.00338245
-0.586951 -0.00898036 -0.00559053
-0.586804 -0.00996175 -0.00335429
-1.34258e-016 3.01551e-019 -1.75241e-018
-1.58731e-016 -2.92343e-018 -1.27219e-018
-1.50851e-016 -3.13622e-018 -1.76248e-018
7.14153e-031 2.63789e-030 -6.02709e-032
-0.159036 -0.461353 -0.00223641
3.99462e-030 1.93157e-029 8.14021e-032
1.49993e-030 7.16312e-030 -1.3269e-031
-0.0914851 -0.336138 0.00652423
4.53147e-030 -4.10085e-030 -2.72688e-029
-4.10584e-017 -1.97163e-016 6.86483e-018
-0.0817089 -0.336853 0.0015563