# vtk DataFile Version 2.0 
output.vtk, Created by Freefem++, via gregorio
ASCII
DATASET UNSTRUCTURED_GRID
POINTS 7451 double
-3.79965 2.23652 0.040848
-4.13429 2.05574 0.276253
-4.09122 2.24524 0.070091
-4.01836 2.27766 0.330071
-3.96697 2.14613 0.158551
-3.94543 2.24088 0.0554695
-3.90901 2.25709 0.185459
-4.11275 2.15049 0.173172
-4.07633 2.1667 0.303162
-4.05479 2.26145 0.200081
-4.81817 0.732763 -0.840268
-4.76136 0.37264 -0.736193
-5.12328 0.495929 -0.550642
-4.73872 0.559667 -0.434419
-4.78977 0.552702 -0.788231
-4.97072 0.614346 -0.695455
-4.77845 0.646215 -0.637344
-4.94232 0.434285 -0.643417
-4.75004 0.466153 -0.585306
-4.931 0.527798 -0.49253
-7.58244 -0.891248 -0.453516
-8 -0.559587 0.124298
-7.26059 -0.264226 0.250847
-7.58828 -0.999993 0.00381
-7.79122 -0.725418 -0.164609
-7.42152 -0.577737 -0.101334
-7.58536 -0.94562 -0.224853
-7.6303 -0.411906 0.187573
-7.79414 -0.77979 0.064054
-7.42444 -0.632109 0.127328
-5.46564 0.048234 0.998836
-5.51396 -0.351144 0.936321
-5.02851 -0.125769 0.598961
-5.56665 -0.148801 0.504295
-5.4898 -0.151455 0.967578
-5.24708 -0.0387675 0.798898
-5.51614 -0.0502835 0.751565
-5.27124 -0.238457 0.767641
-5.5403 -0.249972 0.720308
-5.29758 -0.137285 0.551628
-4.20269 -2.80441 0.102764
-3.63085 -2.57461 -0.287529
-4.13183 -2.29387 0.255347
-4.14432 -2.47254 -0.273935
-3.91677 -2.68951 -0.0923825
-4.16726 -2.54914 0.179055
-4.1735 -2.63848 -0.0855855
-3.88134 -2.43424 -0.016091
-3.88759 -2.52358 -0.280732
-4.13807 -2.38321 -0.009294
-6.25062 -0.085247 0.575431
-6.51584 -0.423084 -0.15939
-6.46019 0.447486 0.293263
-6.75561 -0.174737 0.413139
-6.38323 -0.254165 0.20802
-6.35541 0.181119 0.434347
-6.88822 -0.343655 0.0457285
-6.86039 0.09163 0.272055
-6.48801 0.012201 0.0669365
-4.88162 0.371746 0.655425
-4.51246 -0.112716 0.623981
-4.65723 0.09269 0.995695
-4.69704 0.129515 0.639703
-4.95507 0.122989 0.627193
-4.76942 0.232218 0.82556
-4.77049 -0.119243 0.611471
-4.58484 -0.010013 0.809838
-4.84287 -0.0165395 0.797328
-3.75099 1.20677 0.090288
-3.64118 0.745776 0.266863
-4.09568 0.790235 0.315934
-3.78936 1.07086 0.69071
-3.69609 0.976272 0.178575
-3.92333 0.998502 0.203111
-3.77017 1.13882 0.390499
-3.86843 0.768006 0.291399
-3.71527 0.908319 0.478787
-3.94252 0.930549 0.503322
-2.18572 0.40145 0.915881
-1.75478 0.245881 0.526965
-1.94554 -0.013967 0.999902
-1.76886 0.356252 0.93439
-1.97025 0.323665 0.721423
-2.06563 0.193741 0.957891
-1.97729 0.378851 0.925135
-1.85016 0.115957 0.763433
-1.76182 0.301067 0.730678
-1.8572 0.171143 0.967146
-5.06116 0.824959 0.710182
-4.88551 0.773989 0.80113
-4.92155 0.772883 0.437198
-5.01596 0.602336 0.857802
-4.97333 0.799474 0.755656
-4.99135 0.798921 0.57369
-5.03856 0.713647 0.783992
-4.90353 0.773436 0.619164
-4.95074 0.688163 0.829466
-4.96876 0.687609 0.6475
-2.34262 2.51752 0.051733
-2.4672 2.85727 -0.311185
-2.29554 2.81673 0.086134
-2.65762 2.74748 0.16058
-2.40491 2.6874 -0.129726
-2.31908 2.66712 0.0689335
-2.50012 2.6325 0.106157
-2.38137 2.837 -0.112526
-2.56241 2.80238 -0.0753025
-2.47658 2.7821 0.123357
-3.50303 -3.76846 -0.636668
-3.49422 -3.29308 -1.15018
-3.31427 -3.71149 -1.25136
-2.90724 -3.34218 -0.858121
-3.49863 -3.53077 -0.893424
-3.40865 -3.73997 -0.944014
-3.20514 -3.55532 -0.747394
-3.40425 -3.50228 -1.20077
-3.20073 -3.31763 -1.00415
-3.11076 -3.52683 -1.05474
-4.0054 2.49156 -0.125899
-3.5956 2.50054 -0.194198
-3.83412 2.54803 0.0159
-3.8005 2.49605 -0.160049
-3.90253 2.36404 -0.0425255
-3.91976 2.5198 -0.0549995
-3.69763 2.36853 -0.076675
-3.71486 2.52428 -0.089149
-3.81689 2.39228 0.028374
-3.73452 -3.68531 -1.05781
-3.52439 -3.6984 -1.15459
-3.61437 -3.4892 -1.104
-3.61877 -3.72688 -0.84724
-6.37864 0.944563 0.328331
-6.25891 0.813305 0.581838
-6.65332 0.772267 0.635298
-6.31878 0.878934 0.455085
-6.41941 0.696025 0.310797
-6.51598 0.858415 0.481815
-6.35955 0.630395 0.43755
-6.45612 0.792786 0.608568
-6.55675 0.609877 0.46428
1.62066 -0.841518 -0.540229
1.89324 0.238579 -0.195511
2.01627 -0.690819 -0.723027
2.25185 -0.211859 0.261412
1.75695 -0.30147 -0.36787
1.81846 -0.766169 -0.631628
1.93625 -0.526689 -0.139408
1.95475 -0.22612 -0.459269
2.07254 0.01336 0.0329505
2.13406 -0.451339 -0.230807
-2.56949 2.06853 0.305158
-2.91403 1.60744 0.564909
-3.02709 2.08175 0.021586
-2.87501 2.07662 0.630995
-2.74176 1.83799 0.435033
-2.79829 2.07514 0.163372
-2.72225 2.07258 0.468077
-2.97056 1.8446 0.293247
-2.89452 1.84203 0.597952
-2.95105 2.07919 0.32629
-5.39985 0.358755 0.933432
-5.34934 0.453264 0.543553
-5.56264 0.558471 0.829524
-5.70805 0.297641 0.954678
-5.37459 0.40601 0.738492
-5.48124 0.458613 0.881478
-5.55395 0.328198 0.944055
-5.45599 0.505868 0.686538
-5.52869 0.375452 0.749116
-5.63535 0.428056 0.892101
-4.17913 0.323834 -0.696515
-4.36183 0.516245 -0.417662
-4.60784 0.019305 -0.528365
-4.46586 0.364911 -0.72315
-4.27048 0.42004 -0.557088
-4.39349 0.17157 -0.61244
-4.3225 0.344372 -0.709832
-4.48483 0.267775 -0.473013
-4.41384 0.440578 -0.570406
-4.53685 0.192108 -0.625757
-5.9377 0.438799 -0.558905
-5.87927 0.529091 -0.848565
-6.25926 0.555743 -0.831354
-6.07929 0.245277 -0.969453
-5.90849 0.483945 -0.703735
-6.09848 0.497271 -0.695129
-6.00849 0.342038 -0.764179
-6.06927 0.542417 -0.839959
-5.97928 0.387184 -0.909009
-6.16928 0.40051 -0.900404
-3.64743 2.72944 0.180305
-3.74077 2.63873 0.0981025
-3.72354 2.48298 0.110576
-3.62151 2.61499 -0.0069465
-3.98168 0.388062 0.141859
-3.76543 0.320245 0.603448
-3.81143 0.566919 0.204361
-3.70331 0.533011 0.435156
-4.03868 0.589149 0.228897
-3.87356 0.354154 0.372653
-3.93055 0.55524 0.459691
-6.17342 0.027823 -0.593282
-6.59748 0.255766 -0.966739
-6.35964 0.547779 -0.240473
-6.21634 0.291783 -0.712318
-6.42837 0.405755 -0.899047
-6.30945 0.551761 -0.535914
-6.38545 0.141794 -0.78001
-6.26653 0.287801 -0.416878
-6.47856 0.401772 -0.603606
-5.98474 0.742767 -0.66955
-5.96122 0.590783 -0.614227
-6.122 0.649255 -0.750452
-5.93201 0.635929 -0.759057
-5.86659 0.345457 -0.129882
-5.96054 -0.099592 -0.035866
-6.02 0.18664 -0.361582
-6.11312 0.446618 -0.185177
-5.91357 0.122933 -0.082874
-6.06698 -0.0358845 -0.314574
-6.16009 0.224094 -0.13817
-1.10421 0.363269 -0.931684
-0.773878 0.737644 -0.67519
-0.520452 0.269543 -0.962988
-0.384634 0.008888 -0.353445
-0.939043 0.550457 -0.803437
-0.812329 0.316406 -0.947336
-0.74442 0.186079 -0.642564
-0.647165 0.503594 -0.819089
-0.579256 0.373266 -0.514317
-0.452543 0.139215 -0.658216
-2.85287 -3.00249 -1.21636
-3.23054 -2.92385 -1.196
-3.06719 -3.3306 -1.25351
-2.88006 -3.17233 -1.03724
-3.06889 -3.13301 -1.02706
-2.98722 -3.33639 -1.05581
-3.0417 -2.96317 -1.20618
-2.96003 -3.16654 -1.23493
-3.14886 -3.12722 -1.22475
-3.38618 -2.05134 -0.098565
-2.37808 -2.56123 -0.134541
-2.49252 -2.47812 0.422472
-2.41131 -1.89586 0.044632
-2.88213 -2.30628 -0.116553
-2.93935 -2.26473 0.161954
-2.89875 -1.9736 -0.0269665
-2.4353 -2.51967 0.143966
-2.39469 -2.22855 -0.0449545
-2.45192 -2.18699 0.233552
-1.85713 -0.413967 0.42138
-1.65927 -0.390905 0.920431
-1.2503 -0.077569 0.384148
-1.80595 -0.084043 0.474172
-1.70702 -0.072512 0.723698
-1.50254 0.084156 0.455557
-1.7582 -0.402436 0.670905
-1.55371 -0.245768 0.402764
-1.45478 -0.234237 0.652289
-2.09043 2.55218 0.167395
-2.0659 2.66009 -0.048555
-2.19298 2.68445 0.126765
-2.18072 2.73841 0.0187895
-2.07816 2.60614 0.05942
-2.21652 2.53485 0.109564
-2.20426 2.58881 0.001589
-4.01665 2.44382 0.136481
-3.97233 2.67361 0.084512
-3.92539 2.49592 0.0761905
-3.99449 2.55872 0.110496
-4.01103 2.46769 0.005291
-3.90323 2.61082 0.050206
-3.98887 2.58259 -0.0206935
-3.92754 1.80484 -0.220103
-4.28096 1.83407 -0.225431
-4.13592 1.88983 -0.461486
-4.146 2.03152 -0.278406
-4.10425 1.81945 -0.222767
-4.03173 1.84734 -0.340795
-4.03677 1.91818 -0.249254
-4.20844 1.86195 -0.343458
-4.21348 1.9328 -0.251918
-4.14096 1.96068 -0.369946
-4.04038 -5 0.949212
-3.62468 -5 1.26221
-3.84559 -4.54287 1.07336
-3.71487 -5 0.728948
-3.83253 -5 1.10571
-3.94299 -4.77144 1.01129
-3.87763 -5 0.83908
-3.73513 -4.77144 1.16779
-3.66977 -5 0.99558
-3.78023 -4.77144 0.901156
-1.37334 0.812082 -0.583544
-0.975724 0.961208 -0.275823
-1.19336 -0.166381 -0.273753
-1.17453 0.886645 -0.429683
-1.07361 0.774863 -0.629367
-1.28335 0.32285 -0.428648
-0.874801 0.849426 -0.475506
-1.08454 0.397413 -0.274788
-0.983618 0.285631 -0.474471
-3.83515 -1.82017 -0.741539
-3.34976 -1.58414 -0.592596
-3.50394 -2.07825 -1.02313
-3.59245 -1.70215 -0.667067
-3.66955 -1.94921 -0.882335
-3.61067 -1.93575 -0.420052
-3.42685 -1.83119 -0.807863
-3.36797 -1.81774 -0.345581
-3.44506 -2.06479 -0.560848
-2.72946 0.769161 0.094533
-2.75119 0.681139 -0.326037
-2.98528 1.02631 -0.281501
-3.08113 0.734324 -0.34324
-2.74032 0.72515 -0.115752
-2.85737 0.897737 -0.093484
-2.90529 0.751742 -0.124353
-2.86823 0.853726 -0.303769
-2.91616 0.707731 -0.334639
-3.03321 0.880319 -0.31237
-2.94023 -2.47675 -0.674772
-3.14499 -2.03044 -0.633684
-3.22209 -2.2775 -0.848951
-3.16321 -2.26404 -0.386669
-3.03914 -4.25341 0.579285
-2.64287 -3.80807 0.20828
-2.47531 -4.18593 0.714333
-2.97264 -3.41482 0.618231
-2.84101 -4.03074 0.393783
-2.75723 -4.21967 0.646809
-3.00589 -3.83412 0.598758
-2.55909 -3.997 0.461307
-2.80776 -3.61144 0.413255
-2.72397 -3.80037 0.666282
-2.39684 -0.595487 -0.803365
-1.98884 -0.54749 -0.836812
-2.24172 -0.466498 -0.098067
-2.21295 -0.01831 -0.514797
-2.19284 -0.571489 -0.820088
-2.31928 -0.530992 -0.450716
-2.3049 -0.306899 -0.659081
-2.11528 -0.506994 -0.46744
-2.1009 -0.2829 -0.675804
-2.22734 -0.242404 -0.306432
-3.36239 -4.55484 -1.31864
-3.11171 -4.25429 -0.873787
-2.86199 -4.55394 -1.36046
-2.79118 -5 -0.96439
-3.23705 -4.40456 -1.09621
-3.11219 -4.55439 -1.33955
-3.07678 -4.77742 -1.14151
-2.98685 -4.40411 -1.11712
-2.95144 -4.62714 -0.919088
-2.82658 -4.77697 -1.16243
-3.88203 2.65205 -0.416886
-3.48121 2.84727 -0.340672
-3.82273 3 -0.474998
-3.72541 2.76868 -0.627028
-3.68162 2.74966 -0.378779
-3.85238 2.82603 -0.445942
-3.80372 2.71037 -0.521957
-3.65197 2.92364 -0.407835
-3.60331 2.80798 -0.48385
-3.77407 2.88434 -0.551013
[...]
POINT_DATA 7451
 
FIELD FieldData 2
velocity 3 7451 double
-0.103504 -0.300735 0.00155044
1.24805e-030 2.74669e-030 -4.60802e-032
3.81318e-031 1.04199e-030 -1.13954e-032
1.02685e-030 2.65923e-030 -4.41127e-032
-0.0695181 -0.167317 0.00285204
-0.0626832 -0.172883 0.0019316
-0.0662255 -0.18574 0.00368721
-1.59071e-018 -3.75351e-018 7.92577e-020
4.60219e-018 1.09171e-017 -3.14179e-019
1.86881e-029 -7.87816e-030 -4.37559e-030
7.72524e-030 2.60872e-030 -1.42902e-031
-0.359705 -0.0967919 0.000501263
-0.546486 -0.126458 0.00320071
-0.609662 -0.197611 0.00512264
-0.200135 -0.0693542 0.0054481
-0.269656 -0.0842177 0.00690251
-0.354283 -0.129637 0.006744
-0.467099 -0.119317 0.00456143
-0.514932 -0.15112 0.00416988
-0.586873 -0.167228 0.00492121
8.23055e-029 -2.0212e-031 1.6011e-032
-0.733459 0.00568073 -0.000610382
-0.947053 -0.000298051 -0.000479803
4.76855e-029 -1.67717e-031 4.73745e-032
-0.481618 0.00266768 -0.000206185
-0.725942 -0.00044879 -0.00216248
-1.17759e-016 1.40929e-019 -2.85176e-019
-0.868377 0.00056692 -0.000136702
-0.419931 0.00514498 -0.000978385
-0.646167 0.00137515 -0.000253501
2.8054e-029 2.41023e-030 1.77352e-032
1.84816e-029 9.56154e-031 1.70968e-031
-0.60494 -0.0646308 -0.00475141
-0.760249 -0.0419994 -0.00243497
-9.29043e-017 -5.82092e-018 -1.06923e-018
-0.369026 -0.0338376 -0.00243996
-0.458144 -0.0259802 -0.00245623
-0.351848 -0.021613 -0.00475114
-0.439832 -0.0176118 -0.00437393
-0.687287 -0.0557617 -0.00303474
-3.68948e-030 -5.60336e-029 4.805e-031
0.026946 0.479612 0.0113806
-4.07442e-030 -6.55931e-029 6.07867e-031
-8.15387e-031 -1.01321e-029 -2.02869e-031
0.0228353 0.283917 0.00192421
-5.93069e-017 -6.16666e-016 5.03477e-018
-3.95527e-018 -3.95553e-017 -2.7241e-019
0.0256407 0.319846 0.000794545
0.0228884 0.278418 0.00598726
-5.63733e-017 -5.7643e-016 -1.75526e-018
-0.717974 -0.0136519 -0.00225962
-0.860305 -0.00901803 6.24469e-005
-0.783469 -0.0112436 -0.00139402
-0.871648 -0.00327687 -0.000941823
-0.971554 -0.0146741 -0.00191681
-0.851382 -0.0147939 -0.00219493
-0.957849 -0.00405045 -0.00245375
-1.00676 -0.00300979 -0.000570971
-1.09081 -0.0146329 -0.00134165
-0.485264 -0.125953 -0.00144965
-0.499218 -0.055705 -0.0036029
1.59147e-029 2.96662e-030 5.12353e-032
-0.537505 -0.103649 -0.00201522
-0.594857 -0.100916 -0.00125246
-0.268476 -0.0665909 0.0012617
-0.551706 -0.0660759 -0.00578155
-0.299668 -0.0476812 -0.00358034
-0.340227 -0.0495826 -0.00353705
-0.350435 -0.385505 -0.001522
-0.379201 -0.221212 0.000995962
-0.494177 -0.266842 -0.00126312
-0.182943 -0.186598 0.00118313
-0.376791 -0.321193 -0.00164606
-0.421532 -0.32552 -0.00128976
-0.309481 -0.317601 -0.000253246
-0.450584 -0.250986 0.000621849
-0.305096 -0.243833 0.00301902
-0.335138 -0.245651 0.000832515
-1.30632e-029 -3.55501e-030 1.40773e-031
0.277891 0.029564 -0.000505809
-1.65455e-029 -3.95906e-030 -5.45908e-031
-3.45498e-030 -2.0755e-031 1.88143e-032
0.147648 0.0195936 -0.00198613
4.70391e-017 9.60947e-019 2.28635e-018
2.55906e-018 2.22687e-019 -3.87684e-020
0.172782 0.0174015 6.31851e-006
0.16037 0.00990094 -0.000828132
-5.65295e-017 -3.64444e-018 1.65598e-019
2.20092e-017 9.14831e-018 3.19044e-019
2.33673e-030 9.13669e-031 3.03643e-032
-0.436254 -0.167298 -0.00484553
2.51007e-030 8.76015e-031 1.78544e-032
1.09466e-017 4.78551e-018 1.52607e-019
-0.249494 -0.100196 -0.00324705
8.63506e-017 3.36599e-017 2.06011e-018
-0.248014 -0.10559 -0.00307055
1.33313e-016 5.77919e-017 1.91964e-018
-0.274659 -0.102744 -0.00381467
-0.0290118 -0.212553 -0.0018348
-0.0174163 -0.271392 -0.00366253
-0.0107926 -0.207125 6.01004e-005
-0.0425946 -0.415691 -2.5695e-005
-0.0249972 -0.262249 -0.0018856
-0.019931 -0.210747 -0.00110755
-0.0382458 -0.327397 -0.00102936
-0.015687 -0.262963 -0.00207702
-0.0320371 -0.378051 -0.00168113
-0.0265024 -0.32751 0.000157939
0.0127904 0.363766 0.0160316
-7.21268e-031 -2.82255e-029 -1.68748e-030
-3.58826e-031 -2.26922e-029 -1.49064e-030
-0.00222762 0.326115 0.0205694
0.0074933 0.205563 0.013181
0.0064364 0.206437 0.0137052
0.00512595 0.386396 0.0204741
2.17082e-029 5.79679e-030 6.32794e-029
0.00228742 0.197002 0.0142727
0.000844437 0.172602 0.0130609
8.48096e-031 3.25676e-030 -1.75426e-032
-0.0817 -0.366171 0.000269669
-0.0423443 -0.203091 4.55743e-005
-0.0532801 -0.224321 0.00156954
-0.0535402 -0.17657 0.000390982
-0.0250356 -0.107712 8.88816e-005
-0.0963967 -0.342485 0.000346416
-0.0675591 -0.306063 0.000513445
-0.0706387 -0.251393 0.000930491
-3.00846e-031 -6.42292e-030 -3.9066e-031
-4.37331e-018 -1.039e-016 -8.3028e-018
4.28183e-018 9.07798e-017 7.06285e-018
0.00906478 0.191784 0.0115984
8.87914e-030 1.52245e-031 1.51017e-032
1.17589e-029 1.95103e-031 1.77532e-032
1.53046e-029 1.7567e-031 4.50927e-032
6.21632e-017 1.37687e-018 1.18118e-019
-0.459239 -0.0112334 -0.00102749
-3.98649e-030 -4.41075e-029 -2.22909e-029
-0.45077 -0.00586786 -0.000654306
7.21501e-017 -1.75035e-019 1.39869e-019
-0.457611 -0.00533447 -0.00104427
-1.227e-028 3.12936e-031 -5.95448e-032
0.400912 0.000275839 0.00050597
-4.55331e-029 6.67093e-032 -1.20779e-031
0.390383 -0.00143924 0.00115243
0.348039 -0.00136572 0.000348353
-5.64411e-017 1.24344e-019 -2.83758e-019
0.315301 -0.000468401 0.0012702
0.330479 0.000149218 0.000890482
0.442245 -0.000721631 0.00127262
0.333282 -0.00125008 0.00158545
-0.067195 -0.255131 -0.00308353
-0.0926276 -0.223243 -0.00502677
-0.144457 -0.479822 -0.00207767
-0.0682782 -0.242622 -0.0021428
-0.086675 -0.258134 -0.0042822
-0.112418 -0.400679 -0.00318294
-0.0747345 -0.274555 -0.00294025
-0.143849 -0.397828 -0.00337474
-0.0830309 -0.238155 -0.00346482
-0.120616 -0.414209 -0.0026736
2.68659e-030 3.15755e-031 -4.88151e-032
-0.583387 -0.093188 0.00470082
5.82297e-030 4.27778e-031 -9.07953e-032
2.55357e-029 1.53582e-030 -1.31325e-031
-0.332949 -0.0389256 0.0074671
-8.76747e-017 -6.62059e-018 2.83069e-018
1.21539e-016 5.74915e-018 -3.4798e-018
-0.322986 -0.0351734 0.00664331
-0.33584 -0.0255062 0.00568002
-1.99087e-017 -7.69622e-019 6.957e-019
-0.35378 -0.0810607 -0.00925313
-0.590605 -0.197887 -0.00215587
-0.634781 -0.0886697 -0.00208421
-0.357595 -0.100758 -0.00354082
-0.491638 -0.141432 -0.00596607
-0.509659 -0.092997 -0.00612214
-0.359593 -0.094924 -0.00633429
-0.644351 -0.143052 -0.00417797
-0.501582 -0.153248 -0.0020983
-0.517705 -0.105193 -0.00323638
-0.548037 -0.0167844 -0.00147712
2.89328e-030 6.13055e-032 1.08053e-032
2.55303e-029 4.60575e-031 -5.43843e-032
1.17871e-029 2.52763e-031 -1.14523e-033
-0.298649 -0.00567911 -0.000582322
-0.295938 -0.00780242 0.00123869
-0.322332 -0.00665548 0.000711469
-2.13542e-016 -3.39018e-018 9.29206e-019
-1.02704e-016 -1.16698e-018 3.85338e-019
-9.47093e-030 -2.09901e-029 4.69627e-029
-0.0474951 -0.32118 0.00103213
-0.0468339 -0.271428 0.000543782
-0.0717169 -0.308598 0.000765333
-0.0680238 -0.368588 0.000236257
-0.626313 -0.131217 -0.00137726
-0.338454 -0.033353 0.00714507
-0.501153 -0.17453 -0.00103919
-0.379118 -0.119767 0.00541095
-0.576391 -0.216589 -0.000848617
-0.513938 -0.0839062 0.00494213
-0.447361 -0.161559 0.00521811
-0.702952 -0.0138878 0.000556938
-3.22905e-017 -9.97635e-020 2.02689e-020
-0.706229 -0.0102457 0.000456848
-0.444609 -0.009536 0.00167033
-2.10995e-029 -2.99991e-029 5.89107e-029
-0.446134 -0.00721301 0.00240283
-0.403877 -0.00914208 0.0012596
-0.815905 -0.0155024 0.00101253
-0.516892 -0.00479237 0.00141499
4.68021e-030 1.17586e-031 3.10596e-032
-0.303101 -0.00831148 -0.000368786
-6.89519e-017 -3.42912e-018 7.143e-019
-9.12071e-017 -1.55802e-018 -5.91523e-020
-0.963449 -0.0448939 -0.0010089
-1.06953 -0.0346106 -0.000781229
-0.915518 -0.0276107 -0.000913268
-0.84963 -0.0216646 -0.000327147
-1.07195 -0.0432486 -0.000445877
-0.979856 -0.0266014 -0.000260773
-1.02345 -0.0252574 -6.08579e-005
1.68867e-017 4.31784e-020 -2.41993e-019
-4.02261e-029 -1.63261e-032 2.61205e-031
-1.50331e-029 6.5771e-033 7.96515e-032
0.394229 -0.00199138 -0.000780097
-2.58949e-017 3.42939e-020 2.8005e-019
1.12194e-029 -3.16454e-029 9.58279e-029
0.24564 -0.0010257 -0.00248752
-2.68651e-017 1.73857e-020 2.70858e-019
0.274079 -0.00170142 -0.00192716
0.248793 0.000494922 -0.00174721
9.38912e-032 -1.00193e-029 -8.23673e-031
-3.50402e-031 -3.00721e-029 -2.042e-030
-4.14966e-033 -3.82502e-030 -2.96634e-031
-0.00143382 0.172358 0.0129881
0.00248157 0.182647 0.0147468
-1.25923e-005 0.165838 0.0122922
-9.86788e-019 -8.52419e-017 -7.74946e-018
-7.3852e-020 3.88886e-017 3.32971e-018
-1.59108e-018 -8.23466e-017 -7.44041e-018
0.0206514 0.710308 0.00544459
-0.0244858 0.526244 0.00726326
-0.0207128 0.525974 -0.0172996
-0.0251019 0.607462 -0.00349562
-0.00688629 0.76204 0.00786472
-0.00332386 0.774353 -0.00930973
-0.0064474 0.819597 0.000770754
-0.0240959 0.572602 -0.00455014
-0.0248327 0.568474 0.00316002
-0.0239748 0.585476 -0.0124052
0.317809 0.107039 0.0213308
-2.21628e-029 -1.53496e-030 -3.20067e-031
0.379132 0.00927767 -0.000730511
0.336632 0.065635 0.00678959
0.206464 0.0137133 0.00105729
0.345763 0.0203364 0.00104833
0.174915 0.0125171 0.00947506
0.350572 0.0301867 0.00120234
0.230528 0.00849654 5.56115e-005
-1.91652e-018 -2.30918e-017 9.71309e-020
9.74979e-032 1.13062e-030 1.10759e-032
-0.00701377 -0.103779 0.000233744
-0.00743894 -0.105501 -0.000253
-4.02184e-018 -4.69483e-017 -2.18962e-020
-0.0146677 -0.112896 -0.000934885
-0.0136791 -0.112776 -0.00223292
-6.32604e-018 -2.50611e-017 1.84637e-019
2.37048e-031 1.48875e-030 -4.69397e-033
-0.0268336 -0.114063 0.000562798
1.07841e-017 5.62317e-017 1.87295e-019
2.00711e-029 -6.47699e-030 -1.48917e-031
-0.0186222 -0.114105 -0.000961761
1.99713e-017 1.06823e-016 7.95512e-019
-0.161442 -0.277988 0.00115316
1.27186e-030 1.84324e-030 -3.08566e-032
6.2421e-031 1.06342e-030 -1.50369e-032
4.63561e-031 8.44569e-031 -1.1553e-032
-0.100663 -0.15848 0.00273515
-0.0943385 -0.15932 0.00250824
-0.0908773 -0.161739 0.00199455
-4.73735e-017 -7.41214e-017 1.93455e-018
-2.62123e-016 -4.28653e-016 1.10661e-017
-1.8562e-016 -3.23413e-016 6.97433e-018
-7.9328e-032 -2.17099e-030 6.96413e-032
-9.95442e-032 -5.22683e-030 2.19183e-031
-3.74769e-031 -1.0109e-029 4.699e-031
0.00658375 0.250504 -0.00654891
-2.04991e-018 -7.16779e-017 3.03301e-018
-3.65167e-019 -8.76904e-018 4.04572e-019
0.00427455 0.134472 -0.00396546
5.04165e-019 1.47627e-017 -2.87214e-018
0.00331348 0.141001 -0.00566553
0.0055989 0.148828 -0.00660078
-4.61417e-029 -1.27104e-030 1.44589e-031
-4.85054e-029 -1.48296e-031 2.28702e-031
0.397932 0.00151746 -0.00065762
2.11503e-017 3.16704e-019 -1.47928e-019
-2.31464e-017 -1.85758e-019 1.83021e-019
0.320625 0.00486343 -0.00196113
-5.28975e-017 1.14869e-019 4.29607e-019
0.35017 0.00296045 -0.00166772
0.310962 -0.000632775 -0.00178844
6.49239e-020 1.14576e-018 6.36216e-020
0.00777486 0.498765 0.0265241
-2.34009e-030 -7.31318e-029 -3.38361e-030
0.00884862 0.275353 0.0156993
-4.7076e-018 -9.3259e-017 -1.30341e-017
0.0206567 0.451009 0.0165442
0.00864923 0.248414 0.0172244
0.0153255 0.658086 0.0201995
0.0174477 0.469855 0.0220144
0.0191787 -0.0552454 -0.0053854
0.0160253 -0.00633753 -0.00478483
-0.108699 -0.211529 -0.00547232
-0.112934 -0.100702 -0.0126126
0.016219 -0.0405643 -0.00578178
-0.0492679 -0.150465 -0.00883245
-0.050552 -0.0954916 -0.00919137
-0.0352214 -0.0940005 -0.00876972
-0.0417828 -0.0520388 -0.00949414
-0.104571 -0.160611 -0.0101039
-0.00197149 0.486499 0.0265011
0.00803772 0.526868 0.0260107
0.00877516 0.308525 0.0194785
0.00962972 0.671968 0.0208603
0.000506581 0.480422 -0.0156546
-0.0134191 0.561659 -0.00703055
-0.0114983 0.33274 -0.0147117
-0.000830431 0.503289 -0.0215799
-0.0065017 0.549577 -0.0122599
-0.00705106 0.435777 -0.0165328
0.000262373 0.493099 -0.0197074
-0.0141644 0.470535 -0.0126803
-0.00799084 0.564896 -0.0141001
-0.00863037 0.435 -0.0196582
1.79886e-017 6.49358e-017 4.50413e-018
4.96795e-017 4.72119e-018 -1.89554e-018
0.353389 0.411056 -0.00938782
0.257121 0.137304 -0.0127227
1.24221e-029 3.81263e-029 4.12007e-029
0.246085 0.3212 -0.0125567
0.181844 0.13747 -0.0190481
0.272983 0.186402 -0.0228552
0.205949 0.0784452 -0.0161871
0.334674 0.263698 -0.0150217
1.03147e-018 3.40747e-017 2.82942e-018
0.00240489 0.311903 0.0163517
2.22897e-031 -2.02989e-029 -1.01099e-030
-0.00198362 0.24717 0.00782914
0.00292389 0.154705 0.0104592
1.6036e-018 5.2251e-017 7.11776e-018
0.000795718 0.145108 0.00693185
1.65941e-006 0.156489 0.00996078
-0.000637035 0.285199 0.0115257
-0.00110304 0.127427 0.00589455
5.89036e-031 3.48064e-030 -2.3756e-032
-0.0387702 -0.347966 0.000370163
5.5244e-031 1.14837e-029 -6.74693e-032
9.55944e-031 5.32675e-030 -2.86655e-032
-0.0269798 -0.204343 0.00139807
-2.83228e-017 -2.66051e-016 2.39096e-018
2.22915e-029 -5.041e-030 1.5505e-029
-0.0172568 -0.203083 0.00088493
-0.0256397 -0.196802 -0.000458246
-2.3338e-017 -2.24237e-016 2.39821e-019
0.42451 -2.1041e-005 -0.000107945
-1.7114e-029 1.91527e-032 -3.65096e-033
-1.77874e-029 1.44013e-032 4.02214e-033
-3.02265e-029 3.70693e-032 1.24097e-032
0.293071 0.000181084 -9.48345e-005
0.294314 -9.57101e-005 -0.000201217
0.292197 -0.000124117 -5.71889e-005
1.20487e-029 -4.25856e-020 -1.05023e-029
1.08867e-029 -1.18956e-020 1.72828e-020
2.17059e-017 6.7019e-029 -1.38617e-030
0.161766 0.591103 -0.020766
-0.0181375 0.811367 0.0116187
-0.0214423 0.675005 -0.0402425
0.0311249 0.699897 0.0137226
0.0737379 0.784314 -0.0106726
0.0504485 0.667579 -0.0327188
0.117071 0.721066 -0.0144959
-0.0250188 0.834388 -0.0183252
0.0440086 0.813592 0.0111586
0.0333992 0.823908 -0.0201872
-6.36723e-029 3.84642e-032 3.80068e-032
-3.77153e-029 4.6895e-032 9.3489e-032
-4.67016e-029 2.32338e-031 7.53375e-033
0.391548 -0.00227768 4.67691e-005
1.67614e-017 -3.79689e-022 -9.0029e-020
1.66536e-017 3.21742e-022 -9.95181e-022
0.313517 0.000308842 -0.0012521
7.72731e-019 1.41994e-021 -1.81737e-021
0.281614 0.000621601 -0.000869547
0.319319 -0.00101594 -5.99497e-005
6.95361e-030 3.86307e-030 4.29784e-032
-0.32603 -0.177354 -0.00404381
2.37526e-030 1.28985e-030 2.54625e-032
-0.225981 -0.135981 -0.00212877
-0.22344 -0.113986 -0.00169683
4.88742e-016 3.10348e-016 3.14214e-018
-0.381411 -0.175875 -0.00511865
-0.200116 -0.119752 -0.0015845
-0.214584 -0.109486 -0.00258324
-0.726517 0.000240385 0.00490987
1.5544e-028 -7.79831e-032 -2.40115e-031
1.16571e-029 -6.03243e-032 -1.43575e-031
-0.725867 0.0037706 0.00250099
-0.484877 0.00153589 0.00208649
-0.438406 -0.00082741 0.00529297
-0.802298 0.00279306 0.00283592
-2.02046e-029 3.26862e-029 6.08862e-029
-0.412342 0.00300604 0.00137836
-0.441755 0.00502168 0.00282574
-3.09031e-029 1.13555e-031 1.33067e-031
-1.13764e-029 -6.12933e-032 7.2701e-032
-1.79646e-029 -8.03314e-031 -6.17568e-032
-3.98531e-017 5.75585e-019 4.98196e-020
-1.05125e-018 -7.03397e-021 2.13629e-020
0.25503 4.15914e-005 -0.000346741
-1.44577e-017 -1.13449e-019 3.15656e-019
0.235411 0.0002518 -0.000394633
0.249585 0.00670526 -0.00642076
-6.67937e-029 5.64383e-031 3.7608e-032
0.321877 -0.00337316 -0.000747373
0.270895 -0.00370227 -0.000408003
0.29119 -0.00405459 0.000269038
0.440386 -0.00303065 -0.000416906
0.45308 -0.00298981 -0.000149293
0.400126 -0.00305128 -0.000811095
-1.4501e-029 -4.27727e-031 1.28681e-032
-2.74525e-029 9.13596e-032 -3.83714e-033
4.6332e-017 -1.91341e-019 -1.03347e-019
4.00544e-017 -2.6362e-019 -5.01164e-019
0.234943 0.00322744 -0.000596938
3.63911e-018 -6.1478e-020 -3.09832e-020
0.242414 -0.000482719 -0.00242484
-5.10192e-029 8.42046e-032 1.90638e-031
0.391014 0.000972822 -0.000555368
-3.40333e-029 5.65945e-032 8.45117e-032
0.244455 -0.00101554 -0.000715614
-8.29874e-017 -6.72879e-020 5.85076e-019
0.311464 -0.00136819 -0.00151174
0.254173 0.00014234 -0.000612321
0.410174 -0.000680293 -0.000686808
0.268093 0.00118103 -0.00191203
-1.37697e-029 9.80768e-032 -1.16933e-031
-4.03756e-029 2.84028e-032 -2.68304e-031
-4.70134e-029 2.66264e-031 -2.24055e-031
2.86762e-017 -4.62225e-019 7.46918e-019
-3.08541e-017 5.36472e-019 -7.08993e-019
0.247514 -0.00313913 0.00513939
-2.01218e-017 3.03286e-019 -3.44706e-019
0.257034 -0.00256696 0.00349454
0.256838 -0.00295598 0.00254099
1.46692e-030 -9.7543e-030 2.20731e-032
-0.16899 0.143851 -0.00870517
1.91291e-030 -4.70337e-030 3.40367e-032
0.0609473 0.251749 -0.00538535
-0.0594971 0.107602 -0.0022754
-1.53596e-017 -8.43905e-018 -6.06248e-019
0.00523787 0.170505 -0.000552636
-0.0651112 0.0588925 -0.000681586
-0.0692067 0.213425 -0.00319012
-0.0078589 0.10117 0.00078085
-5.8049e-030 -2.58277e-030 -6.11739e-031
-4.59793e-029 -6.12548e-030 -1.71172e-031
-7.64257e-030 -1.43407e-029 1.93466e-031
0.187132 0.0329914 0.0291603
0.221866 0.0638174 0.0145427
0.229533 0.147944 0.0375054
2.50882e-030 5.11457e-029 -3.18861e-029
5.01055e-017 4.02035e-017 8.4863e-018
-6.44897e-017 -3.48894e-017 -9.12413e-018
-1.75765e-029 -2.48851e-031 5.61918e-032
-1.13677e-017 -1.95375e-029 -6.77704e-029
4.40921e-017 -3.9535e-019 -4.21683e-019
0.257604 0.0023379 -0.000432483
-0.0897504 -0.292517 0.000378933
1.53247e-030 3.55594e-030 -1.20575e-032
-0.141158 -0.287692 -0.0016909
3.40859e-030 8.98883e-030 1.87992e-032
-0.0593573 -0.153441 0.00118913
-0.119685 -0.299316 -0.00118364
-0.0597003 -0.16694 0.000954054
-0.081056 -0.168239 -6.68421e-005
9.98884e-018 2.22326e-017 -4.02793e-020
-0.0710306 -0.157022 -0.000449936
-0.246582 -0.321645 -0.00610598
-0.225728 -0.442715 -0.0025368
-0.107935 -0.199477 -0.00103594
-0.188829 -0.28136 -0.00691653
-0.244172 -0.39754 -0.00396793
-0.173353 -0.282237 -0.00367537
-0.191512 -0.353214 -0.00488426
-0.117906 -0.215171 -0.000706168
-0.18581 -0.361764 -0.00270329
0.389703 0.00107325 -1.79647e-005
-8.01051e-029 -1.72356e-031 2.8369e-031
-3.30278e-029 -1.3009e-031 4.08807e-032
0.400049 0.0010483 -0.000707645
0.258763 0.00166107 -0.000557419
0.245224 0.00173714 0.000535027
0.406455 0.00162498 -0.000893506
3.50675e-029 -8.28365e-030 -1.0364e-028
0.337223 -0.00115123 -0.00130693
0.297626 -0.000405094 -0.000247418
-1.45265e-029 1.32374e-032 1.07984e-032
-3.82802e-029 2.28093e-033 -1.27985e-032
-7.1185e-029 -7.54604e-034 3.43377e-032
1.10938e-029 4.67838e-029 8.24738e-029
0.24932 -0.000315504 -0.000112169
5.48396e-017 1.25378e-019 1.85002e-020
0.27229 0.000568628 0.000594391
-2.57102e-017 -1.04408e-019 1.45162e-020
0.248565 7.45551e-006 -0.000176414
-2.16273e-029 2.98938e-032 -1.86763e-032
-4.18264e-029 2.27799e-032 -8.56501e-032
0.421536 -0.000356143 0.000176289
-7.20752e-029 7.95041e-032 -1.57707e-031
7.11453e-017 -1.17992e-019 3.25262e-019
0.325396 -0.000559314 0.000565114
-5.61711e-017 2.54683e-019 -1.27315e-019
0.333637 -0.00036219 0.00157241
2.65618e-017 5.904e-020 1.67793e-019
0.31671 -0.00157447 0.00050068
0.38841 0.00134171 -0.000437283
-7.9885e-029 -2.30259e-032 1.06406e-031
0.446782 0.000134205 -0.000124617
0.289663 0.000575078 -0.000482861
0.391987 0.0016626 0.000453322
0.315947 -0.000958593 0.000745055
0.451354 0.00105336 -0.000817323
0.32154 0.00101213 -0.00032383
1.11677e-029 1.56747e-031 -3.20873e-032
-0.30674 -0.00649375 0.00254507
7.46335e-017 1.16214e-018 -2.23858e-018
-0.407611 -0.0057053 0.00253041
-0.657026 -0.0129583 0.000886154
7.70051e-031 -2.9026e-029 1.68495e-030
1.21557e-031 -5.33722e-029 3.06958e-030
-0.00564542 0.314623 -0.0192613
1.69189e-005 0.304515 -0.0199638
-0.00729235 0.214769 -0.0139495
7.1909e-019 -3.51644e-017 2.74529e-018
-0.00443734 0.244056 -0.0162383
0.000704591 0.573832 0.00534871
0.0131863 0.349699 0.00918273
0.00428401 0.532109 1.99874e-005
0.000359995 0.463452 0.00734127
0.00979706 0.501609 0.00886846
0.00383627 0.556141 0.00197848
0.000643013 0.524576 0.00776087
0.00849694 0.472774 0.00444577
0.00585367 0.439666 0.00839653
0.00243832 0.522738 0.00425663
0.00833837 0.368061 0.0144756
0.00209241 0.484726 0.014642
0.00116422 0.400177 0.0114508
7.20672e-029 1.26843e-030 1.55528e-031
1.20736e-028 2.59742e-030 1.75973e-031
2.17496e-029 2.73449e-031 2.6292e-032
-0.54667 -0.00707298 -0.00105085
-0.516224 -0.0092658 -0.00253473
-0.517109 -0.00913981 -0.00135242
-1.18416e-016 -7.4432e-021 -5.64769e-019
-1.40693e-016 -2.59876e-018 -5.40565e-019
-1.33933e-016 -3.08566e-018 -8.70053e-019
5.02779e-031 1.46873e-030 -1.76732e-032
-0.119032 -0.295544 0.000265641
2.84848e-030 1.1121e-029 -2.46261e-032
1.05503e-030 4.09322e-030 -3.34589e-032