# vtk DataFile Version 2.0 
output.vtk, Created by Freefem++, via gregorio
ASCII
DATASET UNSTRUCTURED_GRID
POINTS 7451 double
-3.79965 2.23652 0.040848
-4.13429 2.05574 0.276253
-4.09122 2.24524 0.070091
-4.01836 2.27766 0.330071
-3.96697 2.14613 0.158551
-3.94543 2.24088 0.0554695
-3.90901 2.25709 0.185459
-4.11275 2.15049 0.173172
-4.07633 2.1667 0.303162
-4.05479 2.26145 0.200081
-4.81817 0.732763 -0.840268
-4.76136 0.37264 -0.736193
-5.12328 0.495929 -0.550642
-4.73872 0.559667 -0.434419
-4.78977 0.552702 -0.788231
-4.97072 0.614346 -0.695455
-4.77845 0.646215 -0.637344
-4.94232 0.434285 -0.643417
-4.75004 0.466153 -0.585306
-4.931 0.527798 -0.49253
-7.58244 -0.891248 -0.453516
-8 -0.559587 0.124298
-7.26059 -0.264226 0.250847
-7.58828 -0.999993 0.00381
-7.79122 -0.725418 -0.164609
-7.42152 -0.577737 -0.101334
-7.58536 -0.94562 -0.224853
-7.6303 -0.411906 0.187573
-7.79414 -0.77979 0.064054
-7.42444 -0.632109 0.127328
-5.46564 0.048234 0.998836
-5.51396 -0.351144 0.936321
-5.02851 -0.125769 0.598961
-5.56665 -0.148801 0.504295
-5.4898 -0.151455 0.967578
-5.24708 -0.0387675 0.798898
-5.51614 -0.0502835 0.751565
-5.27124 -0.238457 0.767641
-5.5403 -0.249972 0.720308
-5.29758 -0.137285 0.551628
-4.20269 -2.80441 0.102764
-3.63085 -2.57461 -0.287529
-4.13183 -2.29387 0.255347
-4.14432 -2.47254 -0.273935
-3.91677 -2.68951 -0.0923825
-4.16726 -2.54914 0.179055
-4.1735 -2.63848 -0.0855855
-3.88134 -2.43424 -0.016091
-3.88759 -2.52358 -0.280732
-4.13807 -2.38321 -0.009294
-6.25062 -0.085247 0.575431
-6.51584 -0.423084 -0.15939
-6.46019 0.447486 0.293263
-6.75561 -0.174737 0.413139
-6.38323 -0.254165 0.20802
-6.35541 0.181119 0.434347
-6.88822 -0.343655 0.0457285
-6.86039 0.09163 0.272055
-6.48801 0.012201 0.0669365
-4.88162 0.371746 0.655425
-4.51246 -0.112716 0.623981
-4.65723 0.09269 0.995695
-4.69704 0.129515 0.639703
-4.95507 0.122989 0.627193
-4.76942 0.232218 0.82556
-4.77049 -0.119243 0.611471
-4.58484 -0.010013 0.809838
-4.84287 -0.0165395 0.797328
-3.75099 1.20677 0.090288
-3.64118 0.745776 0.266863
-4.09568 0.790235 0.315934
-3.78936 1.07086 0.69071
-3.69609 0.976272 0.178575
-3.92333 0.998502 0.203111
-3.77017 1.13882 0.390499
-3.86843 0.768006 0.291399
-3.71527 0.908319 0.478787
-3.94252 0.930549 0.503322
-2.18572 0.40145 0.915881
-1.75478 0.245881 0.526965
-1.94554 -0.013967 0.999902
-1.76886 0.356252 0.93439
-1.97025 0.323665 0.721423
-2.06563 0.193741 0.957891
-1.97729 0.378851 0.925135
-1.85016 0.115957 0.763433
-1.76182 0.301067 0.730678
-1.8572 0.171143 0.967146
-5.06116 0.824959 0.710182
-4.88551 0.773989 0.80113
-4.92155 0.772883 0.437198
-5.01596 0.602336 0.857802
-4.97333 0.799474 0.755656
-4.99135 0.798921 0.57369
-5.03856 0.713647 0.783992
-4.90353 0.773436 0.619164
-4.95074 0.688163 0.829466
-4.96876 0.687609 0.6475
-2.34262 2.51752 0.051733
-2.4672 2.85727 -0.311185
-2.29554 2.81673 0.086134
-2.65762 2.74748 0.16058
-2.40491 2.6874 -0.129726
-2.31908 2.66712 0.0689335
-2.50012 2.6325 0.106157
-2.38137 2.837 -0.112526
-2.56241 2.80238 -0.0753025
-2.47658 2.7821 0.123357
-3.50303 -3.76846 -0.636668
-3.49422 -3.29308 -1.15018
-3.31427 -3.71149 -1.25136
-2.90724 -3.34218 -0.858121
-3.49863 -3.53077 -0.893424
-3.40865 -3.73997 -0.944014
-3.20514 -3.55532 -0.747394
-3.40425 -3.50228 -1.20077
-3.20073 -3.31763 -1.00415
-3.11076 -3.52683 -1.05474
-4.0054 2.49156 -0.125899
-3.5956 2.50054 -0.194198
-3.83412 2.54803 0.0159
-3.8005 2.49605 -0.160049
-3.90253 2.36404 -0.0425255
-3.91976 2.5198 -0.0549995
-3.69763 2.36853 -0.076675
-3.71486 2.52428 -0.089149
-3.81689 2.39228 0.028374
-3.73452 -3.68531 -1.05781
-3.52439 -3.6984 -1.15459
-3.61437 -3.4892 -1.104
-3.61877 -3.72688 -0.84724
-6.37864 0.944563 0.328331
-6.25891 0.813305 0.581838
-6.65332 0.772267 0.635298
-6.31878 0.878934 0.455085
-6.41941 0.696025 0.310797
-6.51598 0.858415 0.481815
-6.35955 0.630395 0.43755
-6.45612 0.792786 0.608568
-6.55675 0.609877 0.46428
1.62066 -0.841518 -0.540229
1.89324 0.238579 -0.195511
2.01627 -0.690819 -0.723027
2.25185 -0.211859 0.261412
1.75695 -0.30147 -0.36787
1.81846 -0.766169 -0.631628
1.93625 -0.526689 -0.139408
1.95475 -0.22612 -0.459269
2.07254 0.01336 0.0329505
2.13406 -0.451339 -0.230807
-2.56949 2.06853 0.305158
-2.91403 1.60744 0.564909
-3.02709 2.08175 0.021586
-2.87501 2.07662 0.630995
-2.74176 1.83799 0.435033
-2.79829 2.07514 0.163372
-2.72225 2.07258 0.468077
-2.97056 1.8446 0.293247
-2.89452 1.84203 0.597952
-2.95105 2.07919 0.32629
-5.39985 0.358755 0.933432
-5.34934 0.453264 0.543553
-5.56264 0.558471 0.829524
-5.70805 0.297641 0.954678
-5.37459 0.40601 0.738492
-5.48124 0.458613 0.881478
-5.55395 0.328198 0.944055
-5.45599 0.505868 0.686538
-5.52869 0.375452 0.749116
-5.63535 0.428056 0.892101
-4.17913 0.323834 -0.696515
-4.36183 0.516245 -0.417662
-4.60784 0.019305 -0.528365
-4.46586 0.364911 -0.72315
-4.27048 0.42004 -0.557088
-4.39349 0.17157 -0.61244
-4.3225 0.344372 -0.709832
-4.48483 0.267775 -0.473013
-4.41384 0.440578 -0.570406
-4.53685 0.192108 -0.625757
-5.9377 0.438799 -0.558905
-5.87927 0.529091 -0.848565
-6.25926 0.555743 -0.831354
-6.07929 0.245277 -0.969453
-5.90849 0.483945 -0.703735
-6.09848 0.497271 -0.695129
-6.00849 0.342038 -0.764179
-6.06927 0.542417 -0.839959
-5.97928 0.387184 -0.909009
-6.16928 0.40051 -0.900404
-3.64743 2.72944 0.180305
-3.74077 2.63873 0.0981025
-3.72354 2.48298 0.110576
-3.62151 2.61499 -0.0069465
-3.98168 0.388062 0.141859
-3.76543 0.320245 0.603448
-3.81143 0.566919 0.204361
-3.70331 0.533011 0.435156
-4.03868 0.589149 0.228897
-3.87356 0.354154 0.372653
-3.93055 0.55524 0.459691
-6.17342 0.027823 -0.593282
-6.59748 0.255766 -0.966739
-6.35964 0.547779 -0.240473
-6.21634 0.291783 -0.712318
-6.42837 0.405755 -0.899047
-6.30945 0.551761 -0.535914
-6.38545 0.141794 -0.78001
-6.26653 0.287801 -0.416878
-6.47856 0.401772 -0.603606
-5.98474 0.742767 -0.66955
-5.96122 0.590783 -0.614227
-6.122 0.649255 -0.750452
-5.93201 0.635929 -0.759057
-5.86659 0.345457 -0.129882
-5.96054 -0.099592 -0.035866
-6.02 0.18664 -0.361582
-6.11312 0.446618 -0.185177
-5.91357 0.122933 -0.082874
-6.06698 -0.0358845 -0.314574
-6.16009 0.224094 -0.13817
-1.10421 0.363269 -0.931684
-0.773878 0.737644 -0.67519
-0.520452 0.269543 -0.962988
-0.384634 0.008888 -0.353445
-0.939043 0.550457 -0.803437
-0.812329 0.316406 -0.947336
-0.74442 0.186079 -0.642564
-0.647165 0.503594 -0.819089
-0.579256 0.373266 -0.514317
-0.452543 0.139215 -0.658216
-2.85287 -3.00249 -1.21636
-3.23054 -2.92385 -1.196
-3.06719 -3.3306 -1.25351
-2.88006 -3.17233 -1.03724
-3.06889 -3.13301 -1.02706
-2.98722 -3.33639 -1.05581
-3.0417 -2.96317 -1.20618
-2.96003 -3.16654 -1.23493
-3.14886 -3.12722 -1.22475
-3.38618 -2.05134 -0.098565
-2.37808 -2.56123 -0.134541
-2.49252 -2.47812 0.422472
-2.41131 -1.89586 0.044632
-2.88213 -2.30628 -0.116553
-2.93935 -2.26473 0.161954
-2.89875 -1.9736 -0.0269665
-2.4353 -2.51967 0.143966
-2.39469 -2.22855 -0.0449545
-2.45192 -2.18699 0.233552
-1.85713 -0.413967 0.42138
-1.65927 -0.390905 0.920431
-1.2503 -0.077569 0.384148
-1.80595 -0.084043 0.474172
-1.70702 -0.072512 0.723698
-1.50254 0.084156 0.455557
-1.7582 -0.402436 0.670905
-1.55371 -0.245768 0.402764
-1.45478 -0.234237 0.652289
-2.09043 2.55218 0.167395
-2.0659 2.66009 -0.048555
-2.19298 2.68445 0.126765
-2.18072 2.73841 0.0187895
-2.07816 2.60614 0.05942
-2.21652 2.53485 0.109564
-2.20426 2.58881 0.001589
-4.01665 2.44382 0.136481
-3.97233 2.67361 0.084512
-3.92539 2.49592 0.0761905
-3.99449 2.55872 0.110496
-4.01103 2.46769 0.005291
-3.90323 2.61082 0.050206
-3.98887 2.58259 -0.0206935
-3.92754 1.80484 -0.220103
-4.28096 1.83407 -0.225431
-4.13592 1.88983 -0.461486
-4.146 2.03152 -0.278406
-4.10425 1.81945 -0.222767
-4.03173 1.84734 -0.340795
-4.03677 1.91818 -0.249254
-4.20844 1.86195 -0.343458
-4.21348 1.9328 -0.251918
-4.14096 1.96068 -0.369946
-4.04038 -5 0.949212
-3.62468 -5 1.26221
-3.84559 -4.54287 1.07336
-3.71487 -5 0.728948
-3.83253 -5 1.10571
-3.94299 -4.77144 1.01129
-3.87763 -5 0.83908
-3.73513 -4.77144 1.16779
-3.66977 -5 0.99558
-3.78023 -4.77144 0.901156
-1.37334 0.812082 -0.583544
-0.975724 0.961208 -0.275823
-1.19336 -0.166381 -0.273753
-1.17453 0.886645 -0.429683
-1.07361 0.774863 -0.629367
-1.28335 0.32285 -0.428648
-0.874801 0.849426 -0.475506
-1.08454 0.397413 -0.274788
-0.983618 0.285631 -0.474471
-3.83515 -1.82017 -0.741539
-3.34976 -1.58414 -0.592596
-3.50394 -2.07825 -1.02313
-3.59245 -1.70215 -0.667067
-3.66955 -1.94921 -0.882335
-3.61067 -1.93575 -0.420052
-3.42685 -1.83119 -0.807863
-3.36797 -1.81774 -0.345581
-3.44506 -2.06479 -0.560848
-2.72946 0.769161 0.094533
-2.75119 0.681139 -0.326037
-2.98528 1.02631 -0.281501
-3.08113 0.734324 -0.34324
-2.74032 0.72515 -0.115752
-2.85737 0.897737 -0.093484
-2.90529 0.751742 -0.124353
-2.86823 0.853726 -0.303769
-2.91616 0.707731 -0.334639
-3.03321 0.880319 -0.31237
-2.94023 -2.47675 -0.674772
-3.14499 -2.03044 -0.633684
-3.22209 -2.2775 -0.848951
-3.16321 -2.26404 -0.386669
-3.03914 -4.25341 0.579285
-2.64287 -3.80807 0.20828
-2.47531 -4.18593 0.714333
-2.97264 -3.41482 0.618231
-2.84101 -4.03074 0.393783
-2.75723 -4.21967 0.646809
-3.00589 -3.83412 0.598758
-2.55909 -3.997 0.461307
-2.80776 -3.61144 0.413255
-2.72397 -3.80037 0.666282
-2.39684 -0.595487 -0.803365
-1.98884 -0.54749 -0.836812
-2.24172 -0.466498 -0.098067
-2.21295 -0.01831 -0.514797
-2.19284 -0.571489 -0.820088
-2.31928 -0.530992 -0.450716
-2.3049 -0.306899 -0.659081
-2.11528 -0.506994 -0.46744
-2.1009 -0.2829 -0.675804
-2.22734 -0.242404 -0.306432
-3.36239 -4.55484 -1.31864
-3.11171 -4.25429 -0.873787
-2.86199 -4.55394 -1.36046
-2.79118 -5 -0.96439
-3.23705 -4.40456 -1.09621
-3.11219 -4.55439 -1.33955
-3.07678 -4.77742 -1.14151
-2.98685 -4.40411 -1.11712
-2.95144 -4.62714 -0.919088
-2.82658 -4.77697 -1.16243
-3.88203 2.65205 -0.416886
-3.48121 2.84727 -0.340672
-3.82273 3 -0.474998
-3.72541 2.76868 -0.627028
-3.68162 2.74966 -0.378779
-3.85238 2.82603 -0.445942
-3.80372 2.71037 -0.521957
-3.65197 2.92364 -0.407835
-3.60331 2.80798 -0.48385
-3.77407 2.88434 -0.551013
[...]
POINT_DATA 7451
 
FIELD FieldData 2
velocity 3 7451 double
-0.122488 -0.347436 0.00960254
1.51433e-030 3.41946e-030 -1.89916e-031
4.39029e-031 1.19726e-030 -5.61077e-032
1.26669e-030 3.40411e-030 -1.73601e-031
-0.0834298 -0.203723 0.0115121
-0.0726288 -0.1998 0.00931328
-0.0803435 -0.232471 0.0123647
-1.87475e-018 -4.54388e-018 3.16841e-019
5.67222e-018 1.41266e-017 -1.11341e-018
1.84747e-029 -7.92951e-030 -4.30758e-030
8.76263e-030 2.91773e-030 -1.99901e-031
-0.411567 -0.109289 0.00110736
-0.627647 -0.142614 0.00755627
-0.707685 -0.230907 0.00627449
-0.227387 -0.076967 0.00708707
-0.306777 -0.0932 0.00991945
-0.406044 -0.146948 0.00946298
-0.535878 -0.134341 0.00705985
-0.593661 -0.174614 0.00541457
-0.677237 -0.192712 0.00855565
9.40732e-029 -2.9148e-031 2.70985e-032
-0.849051 0.00733304 -0.00062932
-1.10752 5.05806e-005 -0.000609829
5.4318e-029 -2.19047e-031 5.24148e-032
-0.55296 0.00344676 7.8567e-005
-0.837249 1.48811e-005 -0.00253539
-1.34576e-016 2.51255e-019 -3.15755e-019
-1.00981 0.00129168 -7.88683e-005
-0.480126 0.00635786 -0.000800611
-0.743413 0.00192765 -0.000178942
3.20051e-029 3.30959e-030 5.69648e-032
2.10706e-029 1.34546e-030 2.73039e-031
-0.701593 -0.105033 -0.0137031
-0.886803 -0.0624121 -0.00507565
-1.05905e-016 -6.64391e-018 -1.02692e-018
-0.423509 -0.0482566 -0.00390777
-0.527286 -0.033591 -0.00349672
-0.404243 -0.0313691 -0.00756865
-0.506396 -0.0232855 -0.00489133
-0.799856 -0.086025 -0.0084722
-4.12439e-030 -6.31324e-029 1.94508e-030
0.026164 0.423084 0.00282815
-4.50193e-030 -7.50024e-029 2.45078e-030
-7.90638e-031 -9.38726e-030 5.74594e-033
0.0235913 0.288099 -0.00379134
-6.31187e-017 -7.09009e-016 1.86939e-017
-3.9885e-018 -4.02546e-017 5.82189e-019
0.0267434 0.3419 -0.00582775
0.0220123 0.251673 0.000458337
-5.73663e-017 -6.1434e-016 1.09084e-017
-0.832708 -0.0163704 -0.00239698
-1.0058 -0.00960569 -0.00225425
-0.905411 -0.0130045 -0.000904872
-1.01297 -0.00261609 -0.000991223
-1.13489 -0.0173453 -0.00318665
-0.987311 -0.0172463 -0.00228597
-1.11877 -0.00468319 -0.00387403
-1.17292 -0.00250375 -0.000473176
-1.27329 -0.0170271 -0.00154915
-0.564632 -0.186703 0.00456141
-0.571073 -0.101852 -0.0201379
1.82118e-029 4.98445e-030 1.92195e-031
-0.624818 -0.165471 -0.00819708
-0.690339 -0.154647 -0.00384362
-0.310039 -0.108881 0.00316092
-0.63607 -0.112092 -0.0188165
-0.342555 -0.0930275 -0.0102255
-0.390599 -0.0841383 -0.0082465
-0.430767 -0.454793 -0.0227134
-0.467368 -0.266063 -0.0505551
-0.606897 -0.337142 -0.0149988
-0.239817 -0.301126 -0.000689469
-0.465852 -0.386421 -0.039583
-0.520454 -0.398801 -0.0203438
-0.394508 -0.418295 -0.0164171
-0.554818 -0.310527 -0.0326465
-0.387432 -0.328256 -0.0247062
-0.423721 -0.335183 -0.00788651
-1.6705e-029 -6.31859e-030 1.13688e-030
0.349023 0.0527875 -0.00663189
-2.00575e-029 -6.03509e-030 -3.63351e-031
-4.24148e-030 -2.26063e-031 2.60179e-032
0.188342 0.0299944 -0.00624224
6.03522e-017 5.82089e-018 2.26023e-018
3.22441e-018 2.27618e-019 -2.94479e-020
0.213431 0.0176289 -0.00142231
0.1992 0.0114377 0.000980723
-6.93117e-017 -7.78002e-019 -8.36669e-019
2.50072e-017 1.16232e-017 -6.9803e-019
2.6829e-030 1.22341e-030 -5.13531e-032
-0.509243 -0.210781 0.00886669
2.86594e-030 1.17168e-030 -5.35256e-032
1.25091e-017 6.26712e-018 -3.89194e-019
-0.28687 -0.126858 0.00667047
9.84232e-017 4.41958e-017 -3.55881e-018
-0.287011 -0.138483 0.00769592
1.52489e-016 7.80074e-017 -3.39507e-018
-0.316562 -0.135162 0.0057766
-0.0331964 -0.236328 -0.0137207
-0.020413 -0.251448 -0.00890191
-0.0125858 -0.235791 -0.00707205
-0.052341 -0.498606 -0.0154825
-0.0289833 -0.266423 -0.0113011
-0.0231499 -0.237157 -0.0105748
-0.0455988 -0.378159 -0.0165611
-0.0187802 -0.26893 -0.00956837
-0.0381499 -0.394387 -0.0125751
-0.0321245 -0.382715 -0.0119135
0.0112169 0.27077 0.00812184
-6.28324e-031 -2.02279e-029 -1.02197e-030
-3.13977e-031 -1.55107e-029 -8.75223e-031
-0.00173021 0.227678 0.0129201
0.00637485 0.145553 0.00811571
0.00550129 0.14282 0.00813396
0.00469328 0.277068 0.0117371
2.14757e-029 2.12967e-030 6.23883e-029
0.00216724 0.136345 0.0092378
0.0010923 0.117543 0.00832079
9.35374e-031 3.44516e-030 -9.76604e-032
-0.0906704 -0.371023 0.003924
-0.0485272 -0.229489 0.00502143
-0.0580919 -0.233272 0.00631484
-0.0603451 -0.194171 0.0062268
-0.0276375 -0.11723 0.00343064
-0.110469 -0.37178 0.00588447
-0.0761328 -0.329521 0.00570708
-0.082469 -0.287081 0.00763107
-2.53749e-031 -4.5452e-030 -2.22898e-031
-3.61604e-018 -6.97036e-017 -5.17858e-018
3.54026e-018 6.22996e-017 4.53528e-018
0.00763638 0.137699 0.00670963
9.98357e-030 1.70623e-031 1.88716e-033
1.32271e-029 2.21126e-031 1.55391e-032
1.72562e-029 1.83685e-031 4.20729e-032
6.96098e-017 1.54025e-018 8.40005e-020
-0.521294 -0.0128338 -0.000495743
-4.82068e-030 -4.37153e-029 -2.20812e-029
-0.511772 -0.00650998 -0.000657034
8.09834e-017 -1.84485e-019 1.71917e-019
-0.520833 -0.00587407 -0.00102645
-1.45688e-028 3.67079e-031 -7.02823e-032
0.486084 0.000580203 0.00072202
-5.38716e-029 3.65397e-032 -1.26821e-031
0.473569 -0.00219489 0.00130739
0.416699 -0.00126082 0.000283046
-6.68298e-017 3.3664e-020 -3.04791e-019
0.376037 -0.00021677 0.00136166
0.394205 0.00070938 0.000858039
0.536356 -0.00104178 0.00163482
0.397591 -0.0011511 0.00174041
-0.0805295 -0.330525 -0.0293462
-0.119056 -0.345738 -0.0348211
-0.171131 -0.533757 -0.0264847
-0.0913436 -0.416238 -0.021914
-0.107338 -0.365534 -0.0352527
-0.134976 -0.482678 -0.0342319
-0.0940898 -0.403888 -0.0302881
-0.178875 -0.519825 -0.0385543
-0.108741 -0.388321 -0.0289059
-0.152583 -0.553315 -0.032001
3.01964e-030 3.98774e-031 -6.60697e-032
-0.669797 -0.123953 0.0100002
6.53018e-030 5.23544e-031 -1.14386e-031
2.89912e-029 1.93596e-030 -1.4825e-031
-0.377371 -0.0499726 0.0102625
-9.80661e-017 -7.75278e-018 3.40418e-018
1.3645e-016 6.16417e-018 -3.94539e-018
-0.364939 -0.0442125 0.00888019
-0.380889 -0.0311293 0.0069789
-2.22477e-017 -7.00393e-019 7.74791e-019
-0.404261 -0.101704 -0.0145514
-0.687788 -0.233521 -0.0113581
-0.729898 -0.112862 -0.00682574
-0.409554 -0.118036 -0.00508474
-0.567849 -0.169962 -0.0140564
-0.58363 -0.118265 -0.011484
-0.411512 -0.114154 -0.00958977
-0.744475 -0.175021 -0.0115256
-0.57952 -0.181617 -0.00655838
-0.594517 -0.127461 -0.00633588
-0.628211 -0.0135649 0.00196157
3.24878e-030 3.8044e-032 -6.85049e-033
2.89402e-029 3.52225e-031 -1.49362e-031
1.33245e-029 1.79035e-031 -2.7262e-032
-0.338526 -0.00335423 0.00131372
-0.336064 -0.00629139 0.00284709
-0.366667 -0.00423345 0.00204079
-2.40131e-016 -1.90723e-018 2.11833e-018
-1.15766e-016 -2.38348e-019 1.05415e-018
-1.07034e-029 -2.07425e-029 4.65659e-029
-0.0588237 -0.39732 0.00550173
-0.0557721 -0.320642 0.00567767
-0.0867133 -0.369411 0.00675116
-0.0794105 -0.412805 0.0041756
-0.742787 -0.155091 -0.0445314
-0.409758 -0.0373701 -0.0215603
-0.605312 -0.2061 -0.0503353
-0.464823 -0.145379 -0.0409048
-0.696036 -0.264641 -0.031796
-0.615837 -0.0975202 -0.0379097
-0.548078 -0.209814 -0.0232079
-0.813101 -0.010324 0.000553444
-3.67456e-017 4.33808e-020 8.3062e-020
-0.813477 -0.00911339 0.00353674
-0.508267 -0.00733802 0.00302165
-2.42469e-029 -2.96322e-029 5.8449e-029
-0.508326 -0.00581806 0.00457693
-0.461792 -0.00797457 0.00172171
-0.944531 -0.0126456 0.00307763
-0.592089 -0.00285949 0.00304279
5.2504e-030 9.16148e-032 -8.54844e-033
-0.343117 -0.00643943 0.00204963
-7.74493e-017 -2.64159e-018 1.73903e-018
-1.02285e-016 -8.38006e-019 6.63065e-019
-1.11622 -0.0514721 0.00292971
-1.25097 -0.0418871 -0.00321669
-1.06277 -0.0266424 0.000719912
-0.981177 -0.0224775 0.00353464
-1.24888 -0.050805 0.000241155
-1.14149 -0.0263164 -0.00144685
-1.18999 -0.0274773 0.0014955
1.98701e-017 -1.52426e-019 -3.1441e-019
-4.7519e-029 4.56029e-031 4.60874e-031
-1.76167e-029 5.27011e-032 9.19603e-032
0.477195 -0.00458586 -0.000865257
-3.05681e-017 2.80861e-019 4.44096e-019
1.30867e-029 -3.14054e-029 9.49354e-029
0.291361 -0.00294151 -0.00292111
-3.14924e-017 1.03335e-019 3.2108e-019
0.326029 -0.00364361 -0.00232196
0.294433 9.76888e-005 -0.00200397
7.52139e-032 -7.05902e-030 -5.51649e-031
-3.13083e-031 -2.16773e-029 -1.3059e-030
-5.64264e-033 -2.61468e-030 -1.95453e-031
-0.00125404 0.119834 0.00925668
0.00197493 0.126806 0.0100845
3.05408e-005 0.115583 0.00810076
-7.31357e-019 -5.89756e-017 -5.7204e-018
-7.95792e-020 2.69958e-017 2.41971e-018
-1.27479e-018 -5.70878e-017 -5.20706e-018
0.0215998 0.698401 -0.00763515
-0.0253004 0.506195 -0.00183429
-0.027778 0.720294 -0.037874
-0.0279028 0.652354 -0.0186457
-0.00720497 0.741616 -0.00491154
-0.00374459 0.900057 -0.0268917
-0.00641677 0.844866 -0.0162514
-0.0278725 0.662905 -0.0167246
-0.0267834 0.58087 -0.00763705
-0.0292287 0.715223 -0.0298153
0.366815 0.162481 0.0244855
-2.57489e-029 -1.69366e-030 -1.84446e-031
0.456643 0.0153653 -0.00236262
0.408978 0.106445 -0.000254278
0.246489 0.00793321 -0.000860477
0.422924 0.0335931 -0.00199679
0.195363 0.00546232 0.00920518
0.412813 0.0530422 -0.00115911
0.268381 0.00121989 -0.00304993
-1.95517e-018 -2.71499e-017 -1.22529e-018
1.07101e-031 1.21613e-030 5.96149e-032
-0.00754911 -0.120084 -0.00452711
-0.00807861 -0.115015 -0.00400947
-4.14549e-018 -5.20487e-017 -2.2207e-018
-0.0165975 -0.129662 -0.00750982
-0.0152763 -0.12173 -0.00787785
-7.43147e-018 -3.00693e-017 1.13609e-018
2.7536e-031 1.74776e-030 -3.74174e-032
-0.0312085 -0.133306 0.00427321
1.24946e-017 6.63745e-017 -1.64159e-018
1.98538e-029 -6.534e-030 -1.17277e-031
-0.0211904 -0.1309 0.00193404
2.18175e-017 1.1847e-016 -2.53483e-018
-0.184027 -0.295306 0.00815596
1.4334e-030 2.00351e-030 -1.12148e-031
6.75383e-031 1.08356e-030 -5.52208e-032
5.06945e-031 8.81336e-031 -4.63732e-032
-0.112998 -0.170079 0.00961828
-0.103222 -0.164951 0.00844022
-0.100134 -0.169799 0.00874521
-5.14877e-017 -7.76744e-017 5.7954e-018
-2.86481e-016 -4.5467e-016 3.80643e-017
-1.97783e-016 -3.32351e-016 2.32835e-017
-1.30614e-031 -3.97601e-030 1.7247e-031
-2.03499e-031 -1.17121e-029 5.50379e-031
-6.23688e-031 -1.99518e-029 1.1055e-030
0.0101792 0.413089 -0.0145565
-3.62312e-018 -1.66435e-016 7.87328e-018
-5.86881e-019 -1.88637e-017 9.92935e-019
0.00658061 0.247386 -0.0094824
9.05914e-019 3.59317e-017 -7.254e-018
0.00610225 0.307969 -0.0142965
0.00908661 0.299148 -0.015692
-5.49058e-029 -4.6118e-032 1.23462e-030
-5.76728e-029 3.75635e-031 6.22054e-031
0.480905 -0.0116535 0.000105661
2.52944e-017 3.43004e-020 -6.39072e-019
-2.75149e-017 1.56096e-019 6.21748e-019
0.384138 -0.00319393 -0.00824464
-6.25447e-017 5.42963e-019 6.14748e-019
0.420591 -0.00186763 -0.00595917
0.370585 -0.00555035 -0.00332337
5.95694e-020 8.98117e-019 4.34683e-020
0.007192 0.400694 0.01616
-2.11341e-030 -5.87267e-029 -2.0212e-030
0.00825752 0.218899 0.0104716
-4.31984e-018 -7.14829e-017 -9.42171e-018
0.019616 0.388933 0.00846479
0.0075575 0.187376 0.0123538
0.0148448 0.580221 0.00778288
0.0157994 0.37968 0.0136219
0.019976 -0.0563212 -0.0515319
0.0191109 -0.0110804 -0.0340724
-0.128947 -0.209242 -0.0356806
-0.135701 -0.100914 -0.0474116
0.0177936 -0.0445483 -0.0475097
-0.0620732 -0.160034 -0.0469364
-0.0629251 -0.102992 -0.0566647
-0.0455871 -0.0933119 -0.0322677
-0.051533 -0.0538501 -0.0412225
-0.126493 -0.158541 -0.0421054
-0.00171052 0.365394 0.0167675
0.00692658 0.410857 0.0169654
0.00725734 0.226549 0.0136167
0.00908984 0.571131 0.0100491
0.000676098 0.676468 -0.0308675
-0.0159656 0.668515 -0.0175683
-0.0174221 0.544855 -0.0328678
-0.00067159 0.751716 -0.0452131
-0.00830476 0.722221 -0.0245761
-0.009786 0.667154 -0.0345468
0.000338155 0.714893 -0.0387276
-0.0188685 0.653047 -0.0260873
-0.0103623 0.755334 -0.0288696
-0.0129258 0.682357 -0.0402289
1.78267e-017 5.38e-017 3.74754e-018
5.69504e-017 1.41699e-018 1.00185e-019
0.401905 0.439504 -0.0212352
0.302132 0.107049 -0.0260617
1.34586e-029 3.62852e-029 4.10392e-029
0.26582 0.292621 -0.0148567
0.201721 0.111989 -0.0180178
0.2996 0.167712 -0.0169598
0.231709 0.0572111 -0.0124683
0.385156 0.249801 -0.029274
8.00485e-019 2.10508e-017 1.62796e-018
0.00198992 0.208652 0.00807393
1.86656e-031 -1.31133e-029 -4.77184e-031
-0.00166407 0.155432 0.00243206
0.00230001 0.0995651 0.00568432
1.32475e-018 3.32167e-017 4.39569e-018
0.000574169 0.0891366 0.00318042
-4.44305e-005 0.0994284 0.00530636
-0.000650104 0.18579 0.00447784
-0.00104886 0.0781285 0.00276242
6.1296e-031 3.3148e-030 -6.89624e-032
-0.041409 -0.321851 0.0019248
5.70208e-031 1.06286e-029 -1.01219e-031
9.78593e-031 4.84669e-030 -8.62572e-032
-0.0278107 -0.190011 0.00365495
-2.85603e-017 -2.42635e-016 5.43435e-018
2.20841e-029 -4.8038e-030 1.53973e-029
-0.0179537 -0.183811 0.00207575
-0.0257816 -0.17637 0.00174285
-2.2861e-017 -1.97786e-016 2.83514e-018
0.517293 -0.000286525 -0.000178119
-2.00844e-029 2.51684e-032 -4.4172e-033
-2.08825e-029 1.31844e-032 4.03222e-033
-3.55724e-029 4.89126e-032 6.39554e-033
0.34762 0.000136924 -8.64666e-005
0.34924 -0.000132188 -0.000229366
0.347176 -0.000302045 6.15953e-005
1.40706e-029 -6.57243e-020 -1.0402e-029
1.27589e-029 3.85297e-021 -1.1314e-020
2.53896e-017 6.63824e-029 -1.37068e-030
0.202001 0.750077 -0.0464778
-0.0112666 0.791536 -0.0293412
-0.0171337 0.932 -0.0893107
0.0360695 0.708985 -0.00584107
0.0920484 0.897327 -0.053781
0.0690428 0.883533 -0.0771995
0.13652 0.840384 -0.0401581
-0.017668 0.977139 -0.0671378
0.0524498 0.810578 -0.0200671
0.0434428 0.981423 -0.0581547
-7.5265e-029 1.08311e-031 2.14069e-032
-4.43115e-029 8.44532e-032 8.60519e-032
-5.50271e-029 4.41106e-031 -5.15965e-032
0.473091 -0.00386568 0.000144496
1.9735e-017 -5.73182e-023 -9.80248e-020
1.96731e-017 -4.48813e-022 -4.68011e-022
0.373405 4.73196e-005 -0.00126665
9.08316e-019 -2.37618e-022 -6.82804e-022
0.333346 0.000524994 -0.000996637
0.379448 -0.00258242 0.000710877
8.1456e-030 4.74802e-030 -2.46903e-031
-0.394605 -0.239971 0.0118238
2.77375e-030 1.64686e-030 -1.03733e-031
-0.268719 -0.172442 0.0101403
-0.260755 -0.139636 0.00810558
5.74164e-016 3.8726e-016 -2.91728e-017
-0.452105 -0.228667 0.0102649
-0.237647 -0.155999 0.0114748
-0.250394 -0.137794 0.00815712
-0.841276 0.000945019 0.00603227
1.78148e-028 -2.32072e-031 -2.61772e-031
1.32381e-029 -8.64911e-032 -1.65533e-031
-0.840209 0.00521023 0.00298576
-0.556739 0.00278829 0.00282091
-0.501389 -0.000364929 0.00637649
-0.93016 0.00411314 0.00362778
-2.2874e-029 3.24338e-029 6.03487e-029
-0.473509 0.0044029 0.0019788
-0.505982 0.00647586 0.00357585
-3.58289e-029 3.14557e-031 1.86447e-031
-1.31209e-029 1.85568e-031 1.50416e-031
-2.02689e-029 -8.93783e-031 -6.7777e-034
-4.55468e-017 1.97785e-018 3.20627e-019
-1.17845e-018 1.70587e-020 3.50885e-020
0.297536 -0.00210149 -0.0013502
-1.61632e-017 3.99271e-019 5.58734e-019
0.274646 -0.00514788 -0.00225172
0.283955 0.00467181 -0.0103468
-7.86289e-029 1.30109e-030 -2.98069e-031
0.38162 -0.00640879 0.000710651
0.319308 -0.00982835 0.00215284
0.345928 -0.00698691 0.000831234
0.531072 -0.00839144 9.68131e-005
0.548844 -0.00564331 -9.4649e-005
0.483351 -0.0104989 -0.000481145
-1.7181e-029 -2.08171e-031 2.8308e-032
-3.22586e-029 4.00168e-031 -2.0202e-032
5.36582e-017 -2.54429e-018 -2.99949e-019
4.69325e-017 -1.92569e-018 -4.44478e-019
0.278862 -0.00258875 -0.000747382
4.20387e-018 -2.0698e-019 -4.87352e-020
0.286669 -0.00356466 -0.00278997
-6.01797e-029 2.55247e-031 2.45353e-031
0.47274 0.00157669 -0.000704074
-4.00301e-029 1.42322e-031 1.03738e-031
0.289351 -0.0015499 -0.000826999
-9.74666e-017 1.63654e-019 6.99952e-019
0.370376 -0.00307275 -0.00187703
0.301003 -0.000111536 -0.000781608
0.495595 -0.00159928 -0.000800798
0.318019 0.000600641 -0.00218494
-1.60934e-029 1.2169e-031 -1.29735e-031
-4.74121e-029 7.20191e-033 -3.09743e-031
-5.5213e-029 3.00681e-031 -2.67023e-031
3.33589e-017 -5.27735e-019 8.30234e-019
-3.58902e-017 6.0797e-019 -7.96084e-019
0.292485 -0.00386195 0.00574157
-2.34449e-017 3.25721e-019 -3.85406e-019
0.304173 -0.00292867 0.00386865
0.303922 -0.0033274 0.00288895
1.36605e-030 -7.93462e-030 4.36638e-031
-0.180525 0.117348 -0.0216731
1.88851e-030 -3.63635e-030 5.58287e-031
0.0749465 0.216976 -0.0291411
-0.0600589 0.0856578 -0.00565997
-1.36454e-017 -6.15734e-018 2.37968e-019
0.00874375 0.137689 -0.00698128
-0.0681735 0.0434858 -0.00511797
-0.0687493 0.180607 -0.0236273
-0.00398322 0.0771789 -0.00787531
-6.48686e-030 -3.5982e-030 -8.10613e-031
-5.22579e-029 -7.1898e-030 -1.08771e-030
-8.88729e-030 -1.93756e-029 2.56497e-031
0.205102 0.0453345 0.0359096
0.243394 0.0881751 0.0218439
0.256436 0.198831 0.051508
2.74482e-030 5.08522e-029 -3.14392e-029
5.61396e-017 5.3326e-017 1.29496e-017
-6.97653e-017 -4.53676e-017 -1.34734e-017
-2.10714e-029 -1.88282e-031 5.99258e-032
-1.3504e-017 -1.96875e-029 -6.70342e-029
5.22263e-017 -1.6263e-018 -4.46369e-020
0.309376 -0.000203455 0.00134487
-0.0937432 -0.265431 0.00277858
1.57047e-030 3.18578e-030 -5.20438e-032
-0.152672 -0.264106 -0.0045756
3.49442e-030 7.85528e-030 4.70805e-032
-0.0601295 -0.137938 0.00368607
-0.127243 -0.273474 -0.000717432
-0.0605529 -0.145999 0.00228934
-0.083986 -0.15237 0.0016839
9.93471e-018 1.96044e-017 -4.73605e-019
-0.0734158 -0.139652 -0.00010715
-0.288042 -0.325224 -0.0317699
-0.268716 -0.485922 -0.0343433
-0.118691 -0.184191 -0.0160307
-0.221572 -0.281702 -0.0389514
-0.286886 -0.416291 -0.0338938
-0.197997 -0.27298 -0.0258019
-0.224797 -0.367993 -0.0419277
-0.133706 -0.206831 -0.0227755
-0.212648 -0.363823 -0.0306919
0.471015 0.00160993 8.48921e-005
-9.47363e-029 -2.5933e-031 3.41958e-031
-3.88424e-029 -1.82677e-031 5.21719e-032
0.484171 0.00210404 -0.000744744
0.307283 0.00245466 -0.000898698
0.29039 0.00241527 0.000645351
0.491143 0.00258677 -0.0010689
4.13944e-029 -8.17494e-030 -1.02707e-028
0.401964 -0.00145056 -0.00159068
0.353505 -0.000375512 -0.000337705
-1.70136e-029 2.50719e-032 1.59201e-032
-4.50881e-029 1.34258e-032 -6.76571e-033
-8.41784e-029 4.41924e-032 4.86909e-032
1.29363e-029 4.63682e-029 8.171e-029
0.294899 -0.000465398 -0.000207145
6.40518e-017 3.18616e-019 -3.32526e-020
0.323234 0.000659833 0.000445855
-3.03236e-017 -1.00718e-019 2.94201e-020
0.294993 -8.00663e-005 -0.000407858
-2.5489e-029 4.61977e-032 -3.02258e-032
-4.94323e-029 5.36592e-032 -1.06281e-031
0.513023 -0.000582312 0.000266643
-8.54095e-029 1.15513e-031 -2.0679e-031
8.39201e-017 -2.09278e-019 4.16111e-019
0.38726 -0.000886815 0.000775171
-6.6199e-017 3.72912e-019 -1.68467e-019
0.398007 -0.00072294 0.00197994
3.14405e-017 5.70674e-020 2.0803e-019
0.377594 -0.00226793 0.000651807
0.4701 0.00115131 -0.00062228
-9.45362e-029 3.97741e-032 9.67727e-032
0.539785 8.77333e-005 -7.1051e-005
0.344606 0.000250572 -0.000346426
0.473075 0.00199223 0.000424858
0.376702 -0.0015529 0.00111333
0.546425 0.00196948 -0.000950071
0.383349 0.000804209 -0.000344051
1.25733e-029 1.20641e-031 -9.88995e-032
-0.347616 -0.00530139 0.0047556
8.41461e-017 9.14102e-019 -3.27789e-018
-0.462852 -0.00487029 0.00487578
-0.755254 -0.010681 0.00459909
1.22475e-030 -5.7735e-029 3.75335e-030
1.46249e-031 -1.06542e-028 6.75394e-030
-0.00985609 0.679447 -0.0427046
6.1814e-005 0.687446 -0.0434446
-0.0122545 0.475035 -0.0316567
1.39804e-018 -9.25135e-017 6.20988e-018
-0.00808373 0.566808 -0.0364236
0.000635997 0.523079 -0.00340259
0.0120279 0.277044 0.00196684
0.00418849 0.533953 -0.00919677
0.000122525 0.353532 -0.000586056
0.00914809 0.426271 1.58394e-005
0.00335938 0.53083 -0.00647279
0.000325537 0.441348 -0.000920704
0.00841273 0.419887 -0.00318538
0.00515497 0.341917 0.000644545
0.00187647 0.457901 -0.003741
0.00722361 0.266091 0.00593424
0.00182455 0.375143 0.00489919
0.0009205 0.283929 0.00293773
8.25183e-029 1.53372e-030 6.59528e-031
1.38727e-028 2.7942e-030 9.67065e-031
2.4779e-029 2.88607e-031 1.20324e-031
-0.631426 -0.00810072 -0.00369451
-0.595361 -0.00888783 -0.00593308
-0.595057 -0.0100265 -0.00360223
-1.36004e-016 3.45664e-019 -1.90378e-018
-1.60667e-016 -2.9586e-018 -1.36993e-018
-1.52659e-016 -3.13338e-018 -1.86699e-018
7.1636e-031 2.71123e-030 -5.9669e-032
-0.1643 -0.490843 -0.00414545
4.00476e-030 1.99608e-029 1.30222e-031
1.50674e-030 7.38742e-030 -1.33077e-031
-0.0950128 -0.357493 0.00657526
4.3581e-030 -4.09471e-030 -2.63324e-029
-4.29156e-017 -2.10294e-016 7.41194e-018
-0.0850105 -0.36009 0.00101039