# vtk DataFile Version 2.0 
output.vtk, Created by Freefem++, via gregorio
ASCII
DATASET UNSTRUCTURED_GRID
POINTS 7451 double
-3.79965 2.23652 0.040848
-4.13429 2.05574 0.276253
-4.09122 2.24524 0.070091
-4.01836 2.27766 0.330071
-3.96697 2.14613 0.158551
-3.94543 2.24088 0.0554695
-3.90901 2.25709 0.185459
-4.11275 2.15049 0.173172
-4.07633 2.1667 0.303162
-4.05479 2.26145 0.200081
-4.81817 0.732763 -0.840268
-4.76136 0.37264 -0.736193
-5.12328 0.495929 -0.550642
-4.73872 0.559667 -0.434419
-4.78977 0.552702 -0.788231
-4.97072 0.614346 -0.695455
-4.77845 0.646215 -0.637344
-4.94232 0.434285 -0.643417
-4.75004 0.466153 -0.585306
-4.931 0.527798 -0.49253
-7.58244 -0.891248 -0.453516
-8 -0.559587 0.124298
-7.26059 -0.264226 0.250847
-7.58828 -0.999993 0.00381
-7.79122 -0.725418 -0.164609
-7.42152 -0.577737 -0.101334
-7.58536 -0.94562 -0.224853
-7.6303 -0.411906 0.187573
-7.79414 -0.77979 0.064054
-7.42444 -0.632109 0.127328
-5.46564 0.048234 0.998836
-5.51396 -0.351144 0.936321
-5.02851 -0.125769 0.598961
-5.56665 -0.148801 0.504295
-5.4898 -0.151455 0.967578
-5.24708 -0.0387675 0.798898
-5.51614 -0.0502835 0.751565
-5.27124 -0.238457 0.767641
-5.5403 -0.249972 0.720308
-5.29758 -0.137285 0.551628
-4.20269 -2.80441 0.102764
-3.63085 -2.57461 -0.287529
-4.13183 -2.29387 0.255347
-4.14432 -2.47254 -0.273935
-3.91677 -2.68951 -0.0923825
-4.16726 -2.54914 0.179055
-4.1735 -2.63848 -0.0855855
-3.88134 -2.43424 -0.016091
-3.88759 -2.52358 -0.280732
-4.13807 -2.38321 -0.009294
-6.25062 -0.085247 0.575431
-6.51584 -0.423084 -0.15939
-6.46019 0.447486 0.293263
-6.75561 -0.174737 0.413139
-6.38323 -0.254165 0.20802
-6.35541 0.181119 0.434347
-6.88822 -0.343655 0.0457285
-6.86039 0.09163 0.272055
-6.48801 0.012201 0.0669365
-4.88162 0.371746 0.655425
-4.51246 -0.112716 0.623981
-4.65723 0.09269 0.995695
-4.69704 0.129515 0.639703
-4.95507 0.122989 0.627193
-4.76942 0.232218 0.82556
-4.77049 -0.119243 0.611471
-4.58484 -0.010013 0.809838
-4.84287 -0.0165395 0.797328
-3.75099 1.20677 0.090288
-3.64118 0.745776 0.266863
-4.09568 0.790235 0.315934
-3.78936 1.07086 0.69071
-3.69609 0.976272 0.178575
-3.92333 0.998502 0.203111
-3.77017 1.13882 0.390499
-3.86843 0.768006 0.291399
-3.71527 0.908319 0.478787
-3.94252 0.930549 0.503322
-2.18572 0.40145 0.915881
-1.75478 0.245881 0.526965
-1.94554 -0.013967 0.999902
-1.76886 0.356252 0.93439
-1.97025 0.323665 0.721423
-2.06563 0.193741 0.957891
-1.97729 0.378851 0.925135
-1.85016 0.115957 0.763433
-1.76182 0.301067 0.730678
-1.8572 0.171143 0.967146
-5.06116 0.824959 0.710182
-4.88551 0.773989 0.80113
-4.92155 0.772883 0.437198
-5.01596 0.602336 0.857802
-4.97333 0.799474 0.755656
-4.99135 0.798921 0.57369
-5.03856 0.713647 0.783992
-4.90353 0.773436 0.619164
-4.95074 0.688163 0.829466
-4.96876 0.687609 0.6475
-2.34262 2.51752 0.051733
-2.4672 2.85727 -0.311185
-2.29554 2.81673 0.086134
-2.65762 2.74748 0.16058
-2.40491 2.6874 -0.129726
-2.31908 2.66712 0.0689335
-2.50012 2.6325 0.106157
-2.38137 2.837 -0.112526
-2.56241 2.80238 -0.0753025
-2.47658 2.7821 0.123357
-3.50303 -3.76846 -0.636668
-3.49422 -3.29308 -1.15018
-3.31427 -3.71149 -1.25136
-2.90724 -3.34218 -0.858121
-3.49863 -3.53077 -0.893424
-3.40865 -3.73997 -0.944014
-3.20514 -3.55532 -0.747394
-3.40425 -3.50228 -1.20077
-3.20073 -3.31763 -1.00415
-3.11076 -3.52683 -1.05474
-4.0054 2.49156 -0.125899
-3.5956 2.50054 -0.194198
-3.83412 2.54803 0.0159
-3.8005 2.49605 -0.160049
-3.90253 2.36404 -0.0425255
-3.91976 2.5198 -0.0549995
-3.69763 2.36853 -0.076675
-3.71486 2.52428 -0.089149
-3.81689 2.39228 0.028374
-3.73452 -3.68531 -1.05781
-3.52439 -3.6984 -1.15459
-3.61437 -3.4892 -1.104
-3.61877 -3.72688 -0.84724
-6.37864 0.944563 0.328331
-6.25891 0.813305 0.581838
-6.65332 0.772267 0.635298
-6.31878 0.878934 0.455085
-6.41941 0.696025 0.310797
-6.51598 0.858415 0.481815
-6.35955 0.630395 0.43755
-6.45612 0.792786 0.608568
-6.55675 0.609877 0.46428
1.62066 -0.841518 -0.540229
1.89324 0.238579 -0.195511
2.01627 -0.690819 -0.723027
2.25185 -0.211859 0.261412
1.75695 -0.30147 -0.36787
1.81846 -0.766169 -0.631628
1.93625 -0.526689 -0.139408
1.95475 -0.22612 -0.459269
2.07254 0.01336 0.0329505
2.13406 -0.451339 -0.230807
-2.56949 2.06853 0.305158
-2.91403 1.60744 0.564909
-3.02709 2.08175 0.021586
-2.87501 2.07662 0.630995
-2.74176 1.83799 0.435033
-2.79829 2.07514 0.163372
-2.72225 2.07258 0.468077
-2.97056 1.8446 0.293247
-2.89452 1.84203 0.597952
-2.95105 2.07919 0.32629
-5.39985 0.358755 0.933432
-5.34934 0.453264 0.543553
-5.56264 0.558471 0.829524
-5.70805 0.297641 0.954678
-5.37459 0.40601 0.738492
-5.48124 0.458613 0.881478
-5.55395 0.328198 0.944055
-5.45599 0.505868 0.686538
-5.52869 0.375452 0.749116
-5.63535 0.428056 0.892101
-4.17913 0.323834 -0.696515
-4.36183 0.516245 -0.417662
-4.60784 0.019305 -0.528365
-4.46586 0.364911 -0.72315
-4.27048 0.42004 -0.557088
-4.39349 0.17157 -0.61244
-4.3225 0.344372 -0.709832
-4.48483 0.267775 -0.473013
-4.41384 0.440578 -0.570406
-4.53685 0.192108 -0.625757
-5.9377 0.438799 -0.558905
-5.87927 0.529091 -0.848565
-6.25926 0.555743 -0.831354
-6.07929 0.245277 -0.969453
-5.90849 0.483945 -0.703735
-6.09848 0.497271 -0.695129
-6.00849 0.342038 -0.764179
-6.06927 0.542417 -0.839959
-5.97928 0.387184 -0.909009
-6.16928 0.40051 -0.900404
-3.64743 2.72944 0.180305
-3.74077 2.63873 0.0981025
-3.72354 2.48298 0.110576
-3.62151 2.61499 -0.0069465
-3.98168 0.388062 0.141859
-3.76543 0.320245 0.603448
-3.81143 0.566919 0.204361
-3.70331 0.533011 0.435156
-4.03868 0.589149 0.228897
-3.87356 0.354154 0.372653
-3.93055 0.55524 0.459691
-6.17342 0.027823 -0.593282
-6.59748 0.255766 -0.966739
-6.35964 0.547779 -0.240473
-6.21634 0.291783 -0.712318
-6.42837 0.405755 -0.899047
-6.30945 0.551761 -0.535914
-6.38545 0.141794 -0.78001
-6.26653 0.287801 -0.416878
-6.47856 0.401772 -0.603606
-5.98474 0.742767 -0.66955
-5.96122 0.590783 -0.614227
-6.122 0.649255 -0.750452
-5.93201 0.635929 -0.759057
-5.86659 0.345457 -0.129882
-5.96054 -0.099592 -0.035866
-6.02 0.18664 -0.361582
-6.11312 0.446618 -0.185177
-5.91357 0.122933 -0.082874
-6.06698 -0.0358845 -0.314574
-6.16009 0.224094 -0.13817
-1.10421 0.363269 -0.931684
-0.773878 0.737644 -0.67519
-0.520452 0.269543 -0.962988
-0.384634 0.008888 -0.353445
-0.939043 0.550457 -0.803437
-0.812329 0.316406 -0.947336
-0.74442 0.186079 -0.642564
-0.647165 0.503594 -0.819089
-0.579256 0.373266 -0.514317
-0.452543 0.139215 -0.658216
-2.85287 -3.00249 -1.21636
-3.23054 -2.92385 -1.196
-3.06719 -3.3306 -1.25351
-2.88006 -3.17233 -1.03724
-3.06889 -3.13301 -1.02706
-2.98722 -3.33639 -1.05581
-3.0417 -2.96317 -1.20618
-2.96003 -3.16654 -1.23493
-3.14886 -3.12722 -1.22475
-3.38618 -2.05134 -0.098565
-2.37808 -2.56123 -0.134541
-2.49252 -2.47812 0.422472
-2.41131 -1.89586 0.044632
-2.88213 -2.30628 -0.116553
-2.93935 -2.26473 0.161954
-2.89875 -1.9736 -0.0269665
-2.4353 -2.51967 0.143966
-2.39469 -2.22855 -0.0449545
-2.45192 -2.18699 0.233552
-1.85713 -0.413967 0.42138
-1.65927 -0.390905 0.920431
-1.2503 -0.077569 0.384148
-1.80595 -0.084043 0.474172
-1.70702 -0.072512 0.723698
-1.50254 0.084156 0.455557
-1.7582 -0.402436 0.670905
-1.55371 -0.245768 0.402764
-1.45478 -0.234237 0.652289
-2.09043 2.55218 0.167395
-2.0659 2.66009 -0.048555
-2.19298 2.68445 0.126765
-2.18072 2.73841 0.0187895
-2.07816 2.60614 0.05942
-2.21652 2.53485 0.109564
-2.20426 2.58881 0.001589
-4.01665 2.44382 0.136481
-3.97233 2.67361 0.084512
-3.92539 2.49592 0.0761905
-3.99449 2.55872 0.110496
-4.01103 2.46769 0.005291
-3.90323 2.61082 0.050206
-3.98887 2.58259 -0.0206935
-3.92754 1.80484 -0.220103
-4.28096 1.83407 -0.225431
-4.13592 1.88983 -0.461486
-4.146 2.03152 -0.278406
-4.10425 1.81945 -0.222767
-4.03173 1.84734 -0.340795
-4.03677 1.91818 -0.249254
-4.20844 1.86195 -0.343458
-4.21348 1.9328 -0.251918
-4.14096 1.96068 -0.369946
-4.04038 -5 0.949212
-3.62468 -5 1.26221
-3.84559 -4.54287 1.07336
-3.71487 -5 0.728948
-3.83253 -5 1.10571
-3.94299 -4.77144 1.01129
-3.87763 -5 0.83908
-3.73513 -4.77144 1.16779
-3.66977 -5 0.99558
-3.78023 -4.77144 0.901156
-1.37334 0.812082 -0.583544
-0.975724 0.961208 -0.275823
-1.19336 -0.166381 -0.273753
-1.17453 0.886645 -0.429683
-1.07361 0.774863 -0.629367
-1.28335 0.32285 -0.428648
-0.874801 0.849426 -0.475506
-1.08454 0.397413 -0.274788
-0.983618 0.285631 -0.474471
-3.83515 -1.82017 -0.741539
-3.34976 -1.58414 -0.592596
-3.50394 -2.07825 -1.02313
-3.59245 -1.70215 -0.667067
-3.66955 -1.94921 -0.882335
-3.61067 -1.93575 -0.420052
-3.42685 -1.83119 -0.807863
-3.36797 -1.81774 -0.345581
-3.44506 -2.06479 -0.560848
-2.72946 0.769161 0.094533
-2.75119 0.681139 -0.326037
-2.98528 1.02631 -0.281501
-3.08113 0.734324 -0.34324
-2.74032 0.72515 -0.115752
-2.85737 0.897737 -0.093484
-2.90529 0.751742 -0.124353
-2.86823 0.853726 -0.303769
-2.91616 0.707731 -0.334639
-3.03321 0.880319 -0.31237
-2.94023 -2.47675 -0.674772
-3.14499 -2.03044 -0.633684
-3.22209 -2.2775 -0.848951
-3.16321 -2.26404 -0.386669
-3.03914 -4.25341 0.579285
-2.64287 -3.80807 0.20828
-2.47531 -4.18593 0.714333
-2.97264 -3.41482 0.618231
-2.84101 -4.03074 0.393783
-2.75723 -4.21967 0.646809
-3.00589 -3.83412 0.598758
-2.55909 -3.997 0.461307
-2.80776 -3.61144 0.413255
-2.72397 -3.80037 0.666282
-2.39684 -0.595487 -0.803365
-1.98884 -0.54749 -0.836812
-2.24172 -0.466498 -0.098067
-2.21295 -0.01831 -0.514797
-2.19284 -0.571489 -0.820088
-2.31928 -0.530992 -0.450716
-2.3049 -0.306899 -0.659081
-2.11528 -0.506994 -0.46744
-2.1009 -0.2829 -0.675804
-2.22734 -0.242404 -0.306432
-3.36239 -4.55484 -1.31864
-3.11171 -4.25429 -0.873787
-2.86199 -4.55394 -1.36046
-2.79118 -5 -0.96439
-3.23705 -4.40456 -1.09621
-3.11219 -4.55439 -1.33955
-3.07678 -4.77742 -1.14151
-2.98685 -4.40411 -1.11712
-2.95144 -4.62714 -0.919088
-2.82658 -4.77697 -1.16243
-3.88203 2.65205 -0.416886
-3.48121 2.84727 -0.340672
-3.82273 3 -0.474998
-3.72541 2.76868 -0.627028
-3.68162 2.74966 -0.378779
-3.85238 2.82603 -0.445942
-3.80372 2.71037 -0.521957
-3.65197 2.92364 -0.407835
-3.60331 2.80798 -0.48385
-3.77407 2.88434 -0.551013
[...]
POINT_DATA 7451
 
FIELD FieldData 2
velocity 3 7451 double
-1.42623 -4.11872 0.0361951
1.75186e-029 4.07315e-029 -1.7209e-030
5.74332e-030 1.58817e-029 -2.47755e-031
1.50501e-029 4.07988e-029 -1.62774e-030
-1.01853 -2.51247 0.0839979
-0.935575 -2.58165 0.0409834
-1.00351 -2.88033 0.102589
-2.45379e-017 -6.00056e-017 2.11339e-018
7.19442e-017 1.76714e-016 -1.04198e-017
5.28296e-030 -1.22049e-029 -1.73979e-030
2.76698e-029 1.65922e-029 1.17954e-030
-1.1634 -0.710638 -0.0482787
-1.75688 -0.629442 -0.0378085
-2.02614 -1.28149 -0.0668842
-0.725594 -0.460312 -0.0274398
-0.961476 -0.452757 -0.0298967
-1.31439 -0.849098 -0.0688022
-1.51574 -0.702762 -0.036311
-1.67675 -1.0534 -0.0567255
-1.91362 -0.939256 -0.0555194
2.45029e-028 -1.76652e-031 3.72055e-031
-2.15555 0.0157518 -0.00206174
-2.57028 -0.00267419 0.00147354
1.45532e-028 -3.78285e-031 2.28043e-031
-1.47683 0.00132931 -0.00570239
-2.16708 -0.00558656 -0.00990753
-3.73091e-016 -6.86637e-020 -1.7973e-018
-2.45954 0.000611572 -0.000796977
-1.31809 0.0146357 -0.00636676
-1.96499 0.00372551 -0.0030703
8.59577e-029 1.29014e-029 1.78742e-031
5.73561e-029 5.62322e-030 1.49605e-030
-1.70517 -0.391091 -0.0689154
-2.17719 -0.183545 -0.0206114
-4.29076e-016 -3.6932e-017 -9.31744e-018
-1.14821 -0.216688 -0.0202947
-1.42913 -0.136928 -0.0186109
-1.10149 -0.138669 -0.0411989
-1.37569 -0.096036 -0.0295079
-1.97079 -0.273236 -0.0370297
1.02891e-029 1.35428e-028 -1.33587e-030
-0.0669846 -1.01479 -0.0390916
1.04482e-029 1.58902e-028 -1.36519e-030
2.59437e-030 3.04433e-029 1.01325e-030
-0.0712552 -0.769907 -0.00657649
1.36749e-016 1.48631e-015 -3.21137e-017
1.36428e-017 1.32414e-016 1.93573e-018
-0.0722478 -0.837592 -0.0078555
-0.0734788 -0.817173 -0.028753
1.80482e-016 1.84507e-015 2.74383e-017
-2.10163 -0.0478342 -0.0114698
-2.39894 -0.0243137 0.00156233
-2.26053 -0.0367559 -0.00576294
-2.47943 -0.0179051 -0.00726336
-2.68352 -0.0455403 -0.0102025
-2.42702 -0.0489674 -0.00966176
-2.6327 -0.00735068 -0.00195408
-2.75813 -0.0165491 -0.00703568
-2.90891 -0.0441239 -0.00539753
-1.55916 -0.821179 0.0692939
-1.15368 -0.759217 -0.15836
4.63359e-029 3.11906e-029 9.00672e-031
-1.51302 -0.874193 -0.0323202
-1.73383 -0.634549 -0.00603703
-0.858918 -0.646911 0.0386803
-1.47303 -0.551047 -0.106905
-0.832357 -0.690666 -0.0736657
-1.01687 -0.470893 -0.0467587
-2.17089 -4.39585 -0.0175861
-1.07433 -3.86159 -0.0899927
-1.98194 -2.92583 0.0524126
-1.43742 -3.52246 0.0500917
-1.69221 -4.18138 -0.0793236
-2.11013 -3.67324 0.0326929
-2.0281 -4.12051 0.0209547
-1.62135 -3.41366 -0.0175444
-1.49177 -3.91966 -0.106036
-1.75837 -3.32771 0.0724129
-5.57109e-029 1.89214e-029 -5.10424e-030
0.894794 -0.118283 0.0332529
-5.17712e-029 1.64387e-029 4.87894e-031
-1.16522e-029 1.539e-030 -6.43433e-031
0.561958 -0.128815 0.0468035
2.1176e-016 -8.53317e-017 1.24205e-017
9.78873e-018 -2.08456e-018 8.23737e-019
0.554137 -0.117302 0.0234519
0.532164 -0.0680493 0.0242459
-1.85972e-016 3.67371e-017 -9.04423e-018
8.52458e-017 4.83939e-017 -9.38872e-018
8.73432e-030 5.78001e-030 -8.28223e-031
-1.6512 -0.91386 0.105092
8.92585e-030 5.2846e-030 -7.3962e-031
4.33281e-017 2.80449e-017 -5.46999e-018
-0.956712 -0.537243 0.0861779
3.21243e-016 2.97016e-016 -5.45228e-017
-0.974709 -0.635452 0.105974
5.0432e-016 3.7228e-016 -5.71535e-017
-1.00737 -0.588506 0.0891424
-0.417526 -2.9296 -0.0343572
-0.25479 -3.79896 -0.0979103
-0.156859 -2.93383 0.00204585
-0.551365 -4.96942 -0.021629
-0.346186 -3.52447 -0.0279084
-0.288301 -2.9348 -0.0181672
-0.516282 -4.15984 -0.0304837
-0.22173 -3.56538 -0.0374814
-0.426631 -4.63564 -0.0316
-0.367279 -4.23898 -0.00224354
-0.0387057 -0.958957 -0.0548756
2.91867e-030 1.0361e-028 7.52299e-030
1.68378e-030 9.55982e-029 7.21299e-030
0.0103851 -1.17091 -0.0855626
-0.0313948 -0.869727 -0.0699651
-0.0290763 -0.909551 -0.070586
-0.0225463 -1.13151 -0.0754753
-5.50955e-031 -5.67351e-029 -1.62834e-030
-0.017603 -0.938913 -0.0728848
-0.0128306 -0.880303 -0.0708477
1.27515e-029 4.91534e-029 -1.87336e-032
-1.1119 -4.92539 -0.0209358
-0.647867 -3.04667 -0.0066406
-0.808788 -3.36436 0.0091618
-0.819796 -2.67581 -0.00412491
-0.403458 -1.68978 -0.0123115
-1.31708 -4.62278 -0.00509386
-0.974107 -4.32505 -0.00705972
-1.02973 -3.61785 0.0136034
1.19831e-030 2.75027e-029 2.00745e-030
2.20193e-017 5.95647e-016 5.1098e-017
-2.02935e-017 -5.05759e-016 -4.45647e-017
-0.0361243 -0.810164 -0.0632463
2.79106e-029 5.32289e-031 3.05473e-032
3.68235e-029 7.16161e-031 -9.09789e-034
4.79587e-029 6.82636e-031 2.18429e-031
2.05911e-016 5.05864e-018 1.57645e-019
-1.43617 -0.0385342 -0.00219553
-2.1087e-029 -5.12951e-030 -2.4487e-030
-1.41084 -0.0220194 -0.00200027
-5.3518e-017 3.01844e-018 4.81539e-019
-1.42571 -0.0179728 -0.00432936
-3.35147e-028 1.09677e-030 -4.41938e-032
1.04334 -0.00187671 0.000619954
-1.26415e-028 4.21217e-031 -2.63639e-031
1.01798 -0.00266508 0.00203006
0.952827 -0.0065554 0.00139886
-1.61946e-016 9.55765e-019 -4.42325e-019
0.881214 -0.00365478 0.00151303
0.920435 -0.00214276 0.00330035
1.13439 -0.00344599 0.00260914
0.928687 -0.00535542 0.0030552
-0.942518 -3.5765 -0.157447
-1.30392 -3.6735 -0.388239
-1.60612 -5.2936 -0.0500388
-1.04314 -4.22356 -0.197128
-1.21458 -3.87281 -0.274104
-1.37936 -4.84335 -0.129713
-1.06213 -4.09329 -0.213296
-1.7053 -5.08496 -0.200749
-1.21581 -3.9833 -0.292673
-1.49817 -5.16918 -0.159649
8.72342e-030 1.60278e-030 -3.64096e-031
-1.82332 -0.421731 0.0577363
1.8698e-029 1.92532e-030 -5.87893e-031
7.86792e-029 7.01632e-030 -8.21922e-031
-1.07912 -0.192771 0.0530513
-2.93197e-016 -3.47044e-017 1.6923e-017
4.02965e-016 3.3826e-017 -1.91761e-017
-1.05062 -0.162273 0.046123
-1.08281 -0.123046 0.0353141
-6.64077e-017 -4.25122e-018 3.60064e-018
-0.881672 -1.69852 -0.0618996
-1.82598 -1.90478 -0.0611598
-1.53727 -0.900342 0.0335623
-1.09852 -1.15056 -0.0634473
-1.39519 -1.84432 -0.0450896
-1.23592 -1.32357 -0.00572258
-1.01797 -1.41302 -0.0626181
-1.68387 -1.37092 -0.0207607
-1.53777 -1.59598 -0.0631793
-1.3945 -1.11992 -0.0244159
-1.67925 -0.0613575 -0.0070447
9.35959e-030 2.23569e-031 4.40685e-032
7.89159e-029 1.56296e-030 -2.28963e-031
3.72175e-029 9.253e-031 -1.11791e-033
-0.961852 -0.0203006 -0.00226783
-0.947109 -0.0275381 0.00539395
-1.02893 -0.0246186 0.0021143
-7.12321e-016 -1.14308e-017 4.42878e-018
-3.40753e-016 -4.21531e-018 1.49606e-018
-3.08142e-029 -3.50094e-030 6.23213e-030
-0.68317 -4.51486 0.038066
-0.690631 -3.94627 0.0159226
-1.02287 -4.37088 0.0253442
-0.936799 -4.95939 0.000410492
-1.29969 -2.46617 -0.0524613
-0.375682 -2.48215 0.114273
-1.18453 -3.12922 -0.0624522
-0.725863 -3.19685 -0.0256425
-1.67886 -2.77236 -0.0130482
-0.919776 -2.52893 -0.0178222
-1.26715 -2.83021 -0.00827251
-2.07024 -0.0502179 0.00192297
-1.04151e-016 9.49215e-020 1.85111e-019
-2.09269 -0.0324216 0.00258163
-1.38735 -0.0353148 0.00652424
-7.44294e-029 -4.71514e-030 7.13053e-030
-1.40423 -0.0231461 0.010753
-1.26592 -0.0302048 0.00568963
-2.34949 -0.0514768 0.004251
-1.5911 -0.0159496 0.0072169
1.50738e-029 4.37628e-031 1.31708e-031
-0.976708 -0.0292697 -0.00138659
-2.30007e-016 -5.54319e-018 3.34386e-018
-3.05832e-016 -5.2575e-018 -3.67539e-020
-2.69239 -0.158931 -0.00538898
-2.82353 -0.124869 -0.00602713
-2.5705 -0.0977759 -0.00607522
-2.43612 -0.0712368 -0.00131114
-2.8767 -0.154634 -0.00340243
-2.69918 -0.0947974 -0.00336604
-2.78892 -0.0844314 -0.000173469
5.2237e-017 -9.62482e-019 -2.34994e-019
-1.15776e-028 1.09641e-030 3.66937e-031
-4.42139e-029 -1.95584e-031 1.3358e-031
1.03625 -0.00104371 0.000266911
-7.88502e-017 1.3152e-018 2.76425e-019
3.35207e-029 -4.82867e-030 1.46656e-029
0.717528 -0.00324063 -0.00433467
-8.23401e-017 -2.71587e-019 5.21032e-019
0.790908 -0.0042739 -0.00139426
0.725644 0.0070452 -0.00479013
-4.08116e-031 4.55854e-029 3.96134e-030
1.3415e-030 1.12395e-028 8.65411e-030
4.91157e-032 2.02993e-029 1.69163e-030
0.00725947 -0.889704 -0.0834632
-0.0067486 -0.913347 -0.07793
-0.000702011 -0.879607 -0.0728661
2.07909e-018 6.39585e-016 5.26743e-017
3.03069e-019 -2.62869e-016 -2.52127e-017
5.6147e-018 5.36239e-016 -2.39841e-017
-0.013222 -1.04083 -0.0169246
0.0659986 -1.00871 -0.0197369
0.063254 -1.00568 0.0402736
0.0850479 -1.02375 0.00175881
0.0364997 -1.03923 -0.0147977
0.0314337 -1.05985 0.0118729
0.0539668 -1.06586 -0.00625722
0.0631476 -1.05031 0.00802523
0.0708096 -1.03442 -0.0120002
0.0736582 -1.07437 0.025475
0.68509 -0.191448 -0.0752917
-6.30101e-029 7.13033e-030 1.84926e-030
1.0026 -0.051598 -0.0072605
0.934744 -0.177829 -0.00878137
0.611113 -0.0866369 -0.00226484
0.978744 -0.0883008 0.00255342
0.480308 -0.0621234 -0.0463508
0.910271 -0.0864426 -0.0244049
0.666416 -0.0454228 -0.0167569
-2.97307e-017 -3.78489e-016 9.29122e-019
1.48205e-030 1.70498e-029 1.73918e-031
-0.106162 -1.58574 0.00260366
-0.112015 -1.60307 -0.00230679
-6.20607e-017 -7.64672e-016 -3.22433e-019
-0.22797 -1.7145 -0.0182456
-0.208119 -1.69572 -0.0375532
-1.03822e-016 -4.14489e-016 2.72259e-018
3.70756e-030 2.31814e-029 -9.06982e-032
-0.428718 -1.80761 0.00719272
1.79283e-016 9.27132e-016 4.64411e-018
6.35359e-030 -1.6026e-029 -7.68092e-034
-0.298924 -1.80344 -0.0209706
3.3613e-016 1.74961e-015 2.66115e-017
-1.90785 -3.6743 -0.0729493
1.54578e-029 2.45575e-029 3.88735e-031
8.43758e-030 1.60096e-029 6.11581e-031
6.44005e-030 1.24621e-029 2.98653e-031
-1.29362 -2.17468 -0.0489817
-1.27846 -2.3685 -0.096791
-1.25337 -2.36868 -0.0688864
-6.70779e-016 -1.12174e-015 -4.53078e-017
-4.24478e-015 -6.40099e-015 -2.16875e-016
-2.80292e-015 -5.15148e-015 -2.2951e-016
3.39537e-031 9.03969e-030 -3.77876e-031
5.0885e-031 2.46478e-029 -1.35133e-030
1.67595e-030 4.20007e-029 -2.55082e-030
-0.0249882 -0.62573 0.0267784
1.27438e-017 4.45247e-016 -2.23351e-017
1.97555e-018 5.0554e-017 -2.79817e-018
-0.0206953 -0.552418 0.024159
-1.06742e-017 -9.43948e-017 5.58959e-018
-0.018507 -0.693587 0.0360398
-0.027405 -0.671605 0.039663
-1.4014e-028 7.68006e-030 4.25359e-031
-1.37148e-028 1.67791e-030 5.72146e-031
1.0343 -0.0357892 0.0041288
6.36352e-017 -1.3197e-018 -4.57179e-019
-7.055e-017 2.03862e-018 3.23962e-019
0.942366 -0.0374799 -0.00337664
-1.57761e-016 2.15513e-019 5.51195e-019
0.99438 -0.00985493 -0.00475787
0.893405 -0.0185177 -0.000613994
-1.57943e-019 -4.36082e-018 -1.8005e-019
0.0311653 -1.41319 -0.0920141
4.57478e-030 2.15931e-028 1.24744e-029
-0.000712882 -0.995349 -0.0586888
2.60293e-017 5.95304e-016 3.87147e-017
-0.040998 -1.3009 -0.0471996
-0.010038 -1.00161 -0.0691527
0.00434162 -1.37549 -0.051432
-0.0371788 -1.3378 -0.067706
1.85474 -3.31435 0.169399
1.58704 -2.29638 -0.413268
-0.374219 -4.91743 0.252818
0.669157 -4.1361 -0.168531
1.75964 -3.13245 -0.130798
0.914381 -4.66866 -0.098668
1.38742 -4.17021 -0.128082
0.912905 -3.57223 -0.123363
1.34224 -3.47711 -0.311598
0.306548 -4.61845 0.0399928
0.0169741 -1.32671 -0.0870444
0.00278697 -1.45586 -0.0810791
-0.0236622 -1.24166 -0.0887304
-0.00402382 -1.22123 -0.0459635
0.000565846 -0.581848 0.0325208
0.0266953 -0.826677 0.0108087
0.0359868 -0.750023 0.0512834
0.000704313 -0.703232 0.0451028
0.0164426 -0.789284 0.0173987
0.0178498 -0.698639 0.0436444
-0.00123484 -0.648184 0.0422922
0.0365975 -0.843018 0.02352
0.0176854 -0.850929 0.0195262
0.0263219 -0.754106 0.0518622
3.15911e-017 -2.6232e-016 -5.47175e-018
1.3564e-016 -2.63154e-017 9.18224e-018
0.642801 -0.603018 0.0179458
0.934492 -0.485748 -0.0169588
-6.79309e-017 3.41201e-017 1.11683e-029
0.395126 -0.680097 0.0385083
0.488977 -0.441636 0.0487251
0.431984 -0.371734 0.0678978
0.503395 -0.274884 0.0486268
0.872622 -0.576257 0.0137437
-3.55745e-018 -2.43569e-016 -1.89496e-017
-0.00614624 -1.04137 -0.0640332
-1.04041e-030 8.82763e-029 5.23071e-030
0.00798299 -0.942234 -0.0353284
-0.00954723 -0.808811 -0.058679
-6.08221e-018 -4.38374e-016 -4.87449e-017
-0.00238511 -0.774182 -0.0424833
0.00254702 -0.819132 -0.059327
0.00444401 -1.00487 -0.048603
0.00711394 -0.697137 -0.0389437
9.07199e-030 5.55159e-029 2.7099e-031
-0.547438 -5.00364 -0.0468701
8.17259e-030 1.83341e-028 4.63058e-031
1.46124e-029 8.79854e-029 1.09403e-030
-0.425661 -3.36038 -0.0183252
-4.79641e-016 -4.84128e-015 -2.44403e-017
6.62195e-030 -4.39875e-029 8.40718e-030
-0.268913 -3.38936 -0.0265547
-0.407294 -3.39245 -0.0687595
-3.99521e-016 -4.24843e-015 -7.13492e-017
1.05751 -0.00131544 0.000421681
-4.96227e-029 4.27913e-032 2.89248e-033
-5.14189e-029 1.10468e-031 9.4647e-032
-8.65693e-029 1.41144e-031 1.01929e-031
0.840063 0.000783543 -0.00028733
0.841337 -0.000982142 -0.00197192
0.835047 0.000566215 -0.00157439
3.57118e-029 -2.0389e-019 1.09694e-018
3.29543e-029 -3.53845e-019 3.65317e-019
6.65595e-017 1.40234e-020 -1.17925e-031
0.22747 -0.783375 -0.0287933
0.362962 -1.26205 -0.055799
0.298452 -1.10161 0.0860175
0.103354 -1.13135 -0.0272559
0.359461 -1.17479 -0.0122631
0.298985 -0.950827 0.0329699
0.132911 -1.11103 -0.00745057
0.361722 -1.3252 0.00772548
0.22047 -1.16662 -0.0406468
0.214434 -1.21744 0.00742228
-1.7835e-028 3.28067e-031 -7.78834e-032
-1.08832e-028 1.61911e-031 3.41037e-031
-1.32011e-028 5.88848e-031 5.40665e-033
1.03408 -0.00370462 -0.00173507
4.98881e-017 -3.77112e-021 -2.54878e-019
4.87043e-017 -3.18915e-021 -3.55929e-021
0.886056 -0.0026151 -0.00338624
2.31114e-018 1.44543e-029 2.92046e-031
0.819619 0.00264351 -0.00355401
0.909199 -0.00351672 -0.00225749
3.43838e-029 2.62489e-029 -3.12895e-030
-1.55381 -1.53106 0.222804
1.13074e-029 9.00283e-030 -1.56649e-030
-1.20267 -1.00484 0.156146
-1.02407 -0.641265 0.0995931
2.69776e-015 2.14422e-015 -4.04138e-016
-1.60008 -1.18871 0.16275
-1.02639 -0.914889 0.172797
-0.966975 -0.664831 0.109866
-2.13328 -0.0068104 0.0108661
4.51606e-028 1.80702e-031 -9.49587e-032
3.59492e-029 -9.5825e-033 -3.81915e-031
-2.12086 0.00477744 0.00112438
-1.47759 -0.00657127 0.00157665
-1.36899 -0.0105214 0.0141144
-2.31505 0.00232881 0.00168705
-6.20736e-029 4.26944e-031 1.18565e-030
-1.26072 0.00152024 -0.00387109
-1.36441 0.00926439 0.00426007
-8.91113e-029 1.21658e-030 5.75258e-031
-3.34611e-029 1.23574e-030 5.31043e-031
-4.93784e-029 2.74807e-030 1.8095e-030
-1.22275e-016 1.68775e-018 2.2005e-018
-3.15699e-018 5.48042e-020 6.28082e-020
0.735806 -0.0143513 -0.00683658
-4.39919e-017 1.28523e-018 1.24268e-018
0.688619 -0.0241895 -0.0134066
0.711616 -0.027872 -0.0156167
-1.86092e-028 1.45305e-030 -9.10873e-032
0.900883 -0.00534465 -0.00163807
0.768355 -0.00744936 0.00179733
0.824721 -0.00763378 -0.000288646
1.13745 -0.0197873 -0.000994484
1.16471 -0.00639751 0.0015309
1.04881 -0.0139622 0.000355839
-4.33406e-029 3.38407e-030 -1.11803e-031
-7.97159e-029 1.70182e-030 2.07701e-031
1.4475e-016 -5.91732e-018 -2.08223e-018
1.24671e-016 -4.87703e-018 -1.25679e-018
0.689917 -0.0374705 -0.00284271
1.12922e-017 -2.74715e-019 -2.47362e-019
0.707149 -0.02337 -0.00981755
-1.44851e-028 -6.56877e-031 2.09666e-031
1.03279 0.00551292 -0.000224899
-9.80607e-029 -4.91782e-031 -3.56269e-032
0.707534 0.000778659 0.000890123
-2.50043e-016 -2.78078e-018 7.90693e-019
0.88763 0.00409333 -0.00110128
0.739637 0.00595227 0.000521511
1.08287 0.00484137 0.00137605
0.777383 0.0101195 -0.00377901
-4.06239e-029 2.53802e-031 -3.60773e-031
-1.16818e-028 1.19676e-031 -8.48458e-031
-1.36207e-028 9.32571e-031 -6.35068e-031
8.91451e-017 -1.47159e-018 2.50032e-018
-9.62277e-017 1.78168e-018 -2.24192e-018
0.723033 -0.00874811 0.016204
-6.24354e-017 1.10903e-018 -1.13934e-018
0.747651 -0.00845983 0.0117843
0.750167 -0.010437 0.00727516
-2.42417e-029 5.79644e-029 4.36003e-030
0.502469 -1.6172 -0.146922
-3.01393e-029 4.96619e-029 1.13245e-029
0.871845 -1.21169 -0.148871
0.407824 -0.908612 -0.0579382
8.04372e-017 8.48831e-017 -1.24565e-017
0.484086 -1.01413 -0.0834722
0.398388 -0.710805 -0.141449
0.740797 -1.55742 -0.213062
0.614587 -0.873973 -0.182583
-1.12205e-029 5.62613e-030 2.66639e-030
-1.07115e-028 1.02861e-029 2.31885e-030
-8.26157e-030 2.7664e-029 2.35573e-030
0.40301 -0.0956085 -0.0928444
0.390043 -0.0899297 -0.0572037
0.318574 -0.220394 -0.114561
5.66132e-030 7.82965e-030 -7.13597e-030
5.18557e-017 -7.04838e-017 -3.67705e-017
-8.0712e-017 4.73153e-017 2.95707e-017
-5.30999e-029 3.08777e-030 -7.01342e-031
-3.56237e-017 1.86001e-018 -2.41728e-019
1.37296e-016 -5.03817e-018 -7.55785e-020
0.760852 -0.0379027 0.00565515
-1.28696 -4.64391 -0.0793111
2.27597e-029 6.6318e-029 1.52382e-030
-1.72796 -4.59089 -0.0187614
5.03781e-029 1.67228e-028 1.09045e-030
-0.946506 -2.95115 -0.076077
-1.59989 -4.71383 -0.0701816
-0.939369 -3.3143 -0.0506707
-1.18988 -3.24009 -0.0912303
1.69954e-016 5.01461e-016 1.49775e-017
-1.0609 -3.14721 -0.0403647
-1.62163 -4.77427 0.150579
-2.02336 -5.23746 -0.0262418
-1.28224 -3.57999 0.362932
-1.10253 -5.01246 0.251023
-1.8923 -5.20748 0.065244
-1.47281 -4.69028 0.319055
-1.57569 -5.34109 0.0998772
-1.15111 -4.22724 0.495897
-1.80168 -5.12449 0.178861
1.03366 0.00266156 0.000863751
-2.23027e-028 -5.86465e-031 5.93802e-031
-9.49762e-029 -5.05769e-031 -3.46012e-033
1.05239 0.00337049 0.000137444
0.739776 0.00420914 -5.10674e-005
0.71151 0.00643762 0.00189158
1.07455 0.00580059 0.00053559
1.05085e-028 -6.25213e-031 -1.19974e-029
0.945638 -0.00127627 -0.00252771
0.855064 0.000781644 0.000608706
-4.25663e-029 -1.35157e-031 -4.18797e-033
-1.09055e-028 5.28201e-032 -2.53787e-031
-1.98854e-028 -4.73089e-031 -3.11889e-031
3.26228e-029 6.52367e-030 1.1459e-029
0.725091 0.00249095 -0.000600878
1.68027e-016 9.88574e-019 1.13484e-019
0.782334 0.000993775 0.00375283
-7.55275e-017 -2.00017e-019 -2.1104e-019
0.714587 0.00240907 0.00135674
-6.11924e-029 3.07992e-032 3.77733e-032
-1.16928e-028 -3.73266e-032 -1.85535e-031
1.05974 -7.25484e-005 -0.000573204
-1.98967e-028 3.62052e-031 -4.26056e-031
2.08641e-016 1.28244e-019 4.65023e-019
0.91433 0.000203433 -4.02211e-005
-1.65364e-016 3.70507e-019 -2.9566e-019
0.930126 0.000568321 0.00268359
7.65443e-017 1.38273e-019 4.69391e-019
0.885368 -0.00308483 0.00202399
1.02391 0.0040944 -0.00215471
-2.21928e-028 -5.64353e-031 2.40935e-031
1.16438 0.00360555 0.000757293
0.821996 0.00277943 -0.00354248
1.04254 0.00531852 0.0011663
0.88531 0.000439169 0.00232822
1.16162 0.00370305 -0.000187415
0.902895 0.00446541 -0.000154774
3.54383e-029 5.06348e-031 -1.27114e-031
-0.985367 -0.0205698 0.00968905
2.57309e-016 8.72432e-018 -2.79338e-018
-1.29481 -0.0165077 0.00927539
-1.96921 -0.0419696 0.00279718
-2.99445e-030 1.04635e-028 -6.21638e-030
-4.9782e-033 1.75637e-028 -1.09606e-029
0.0243031 -1.23204 0.064105
-0.00289178 -1.23398 0.0648884
0.0301001 -0.971147 0.0621808
-3.95738e-018 2.00932e-016 -1.21262e-017
0.020806 -1.07497 0.0643119
-0.000948109 -0.73819 -0.00689841
-0.0377464 -0.797585 -0.0255666
-0.003437 -0.685032 0.00388971
-0.00123163 -0.76281 -0.00989688
-0.0190083 -0.797637 -0.0144811
-0.00469917 -0.704004 -0.00247973
-0.00122472 -0.760378 -0.0129712
-0.0153909 -0.768888 -0.00845991
-0.0107887 -0.799228 -0.0160028
-0.000784102 -0.727853 -0.00746218
-0.0248001 -0.930087 -0.041453
-0.00484974 -0.845521 -0.0285021
-0.00340474 -0.888691 -0.0250767
2.17354e-028 5.04889e-030 1.37236e-030
3.52803e-028 9.82874e-030 7.26676e-031
6.775e-029 8.76479e-031 1.43117e-031
-1.67408 -0.027104 -0.00833818
-1.57858 -0.033294 -0.00947564
-1.59855 -0.0272219 -0.00546995
-3.80959e-016 1.87805e-018 -1.5674e-018
-4.60333e-016 -9.36342e-018 -3.23947e-018
-4.39129e-016 -1.07379e-017 -3.49204e-018
8.39605e-030 3.48228e-029 -1.18705e-030
-1.65793 -4.69415 0.0404412
4.57861e-029 2.2457e-028 -7.97971e-031
1.74565e-029 8.74467e-029 -2.60221e-030
-1.09078 -4.54812 0.150681
-3.09149e-030 -2.98695e-029 -1.20693e-029
-5.41901e-016 -2.95825e-015 1.2876e-016
-0.990228 -4.51441 0.057065
-0.958441 -4.46034 0.159481
-4.00255e-016 -2.36917e-015 7.01797e-017
-0.0156383 -0.877458 -0.0318369
-0.0261315 -0.873304 -0.0293567
-0.0141783 -0.962466 -0.0443925
-0.00343177 -0.874873 -0.0137576
-2.36713e-028 -3.39648e-031 7.9127e-031
-4.05195e-029 1.6709e-031 1.1435e-031
-1.32108e-028 2.51433e-030 2.29852e-032
4.10939e-029 -9.1565e-030 -8.26802e-030
0.874463 0.00718038 -0.00745825
5.45801e-029 -1.21521e-029 -9.04082e-030
0.781287 -0.00928514 -0.00222717
3.81872e-029 -7.61796e-030 -1.01558e-029
0.825575 -0.00410906 0.00128905
-1.02811 -5.40169 -0.0702661