# vtk DataFile Version 2.0 
output.vtk, Created by Freefem++, via gregorio
ASCII
DATASET UNSTRUCTURED_GRID
POINTS 7451 double
-3.79965 2.23652 0.040848
-4.13429 2.05574 0.276253
-4.09122 2.24524 0.070091
-4.01836 2.27766 0.330071
-3.96697 2.14613 0.158551
-3.94543 2.24088 0.0554695
-3.90901 2.25709 0.185459
-4.11275 2.15049 0.173172
-4.07633 2.1667 0.303162
-4.05479 2.26145 0.200081
-4.81817 0.732763 -0.840268
-4.76136 0.37264 -0.736193
-5.12328 0.495929 -0.550642
-4.73872 0.559667 -0.434419
-4.78977 0.552702 -0.788231
-4.97072 0.614346 -0.695455
-4.77845 0.646215 -0.637344
-4.94232 0.434285 -0.643417
-4.75004 0.466153 -0.585306
-4.931 0.527798 -0.49253
-7.58244 -0.891248 -0.453516
-8 -0.559587 0.124298
-7.26059 -0.264226 0.250847
-7.58828 -0.999993 0.00381
-7.79122 -0.725418 -0.164609
-7.42152 -0.577737 -0.101334
-7.58536 -0.94562 -0.224853
-7.6303 -0.411906 0.187573
-7.79414 -0.77979 0.064054
-7.42444 -0.632109 0.127328
-5.46564 0.048234 0.998836
-5.51396 -0.351144 0.936321
-5.02851 -0.125769 0.598961
-5.56665 -0.148801 0.504295
-5.4898 -0.151455 0.967578
-5.24708 -0.0387675 0.798898
-5.51614 -0.0502835 0.751565
-5.27124 -0.238457 0.767641
-5.5403 -0.249972 0.720308
-5.29758 -0.137285 0.551628
-4.20269 -2.80441 0.102764
-3.63085 -2.57461 -0.287529
-4.13183 -2.29387 0.255347
-4.14432 -2.47254 -0.273935
-3.91677 -2.68951 -0.0923825
-4.16726 -2.54914 0.179055
-4.1735 -2.63848 -0.0855855
-3.88134 -2.43424 -0.016091
-3.88759 -2.52358 -0.280732
-4.13807 -2.38321 -0.009294
-6.25062 -0.085247 0.575431
-6.51584 -0.423084 -0.15939
-6.46019 0.447486 0.293263
-6.75561 -0.174737 0.413139
-6.38323 -0.254165 0.20802
-6.35541 0.181119 0.434347
-6.88822 -0.343655 0.0457285
-6.86039 0.09163 0.272055
-6.48801 0.012201 0.0669365
-4.88162 0.371746 0.655425
-4.51246 -0.112716 0.623981
-4.65723 0.09269 0.995695
-4.69704 0.129515 0.639703
-4.95507 0.122989 0.627193
-4.76942 0.232218 0.82556
-4.77049 -0.119243 0.611471
-4.58484 -0.010013 0.809838
-4.84287 -0.0165395 0.797328
-3.75099 1.20677 0.090288
-3.64118 0.745776 0.266863
-4.09568 0.790235 0.315934
-3.78936 1.07086 0.69071
-3.69609 0.976272 0.178575
-3.92333 0.998502 0.203111
-3.77017 1.13882 0.390499
-3.86843 0.768006 0.291399
-3.71527 0.908319 0.478787
-3.94252 0.930549 0.503322
-2.18572 0.40145 0.915881
-1.75478 0.245881 0.526965
-1.94554 -0.013967 0.999902
-1.76886 0.356252 0.93439
-1.97025 0.323665 0.721423
-2.06563 0.193741 0.957891
-1.97729 0.378851 0.925135
-1.85016 0.115957 0.763433
-1.76182 0.301067 0.730678
-1.8572 0.171143 0.967146
-5.06116 0.824959 0.710182
-4.88551 0.773989 0.80113
-4.92155 0.772883 0.437198
-5.01596 0.602336 0.857802
-4.97333 0.799474 0.755656
-4.99135 0.798921 0.57369
-5.03856 0.713647 0.783992
-4.90353 0.773436 0.619164
-4.95074 0.688163 0.829466
-4.96876 0.687609 0.6475
-2.34262 2.51752 0.051733
-2.4672 2.85727 -0.311185
-2.29554 2.81673 0.086134
-2.65762 2.74748 0.16058
-2.40491 2.6874 -0.129726
-2.31908 2.66712 0.0689335
-2.50012 2.6325 0.106157
-2.38137 2.837 -0.112526
-2.56241 2.80238 -0.0753025
-2.47658 2.7821 0.123357
-3.50303 -3.76846 -0.636668
-3.49422 -3.29308 -1.15018
-3.31427 -3.71149 -1.25136
-2.90724 -3.34218 -0.858121
-3.49863 -3.53077 -0.893424
-3.40865 -3.73997 -0.944014
-3.20514 -3.55532 -0.747394
-3.40425 -3.50228 -1.20077
-3.20073 -3.31763 -1.00415
-3.11076 -3.52683 -1.05474
-4.0054 2.49156 -0.125899
-3.5956 2.50054 -0.194198
-3.83412 2.54803 0.0159
-3.8005 2.49605 -0.160049
-3.90253 2.36404 -0.0425255
-3.91976 2.5198 -0.0549995
-3.69763 2.36853 -0.076675
-3.71486 2.52428 -0.089149
-3.81689 2.39228 0.028374
-3.73452 -3.68531 -1.05781
-3.52439 -3.6984 -1.15459
-3.61437 -3.4892 -1.104
-3.61877 -3.72688 -0.84724
-6.37864 0.944563 0.328331
-6.25891 0.813305 0.581838
-6.65332 0.772267 0.635298
-6.31878 0.878934 0.455085
-6.41941 0.696025 0.310797
-6.51598 0.858415 0.481815
-6.35955 0.630395 0.43755
-6.45612 0.792786 0.608568
-6.55675 0.609877 0.46428
1.62066 -0.841518 -0.540229
1.89324 0.238579 -0.195511
2.01627 -0.690819 -0.723027
2.25185 -0.211859 0.261412
1.75695 -0.30147 -0.36787
1.81846 -0.766169 -0.631628
1.93625 -0.526689 -0.139408
1.95475 -0.22612 -0.459269
2.07254 0.01336 0.0329505
2.13406 -0.451339 -0.230807
-2.56949 2.06853 0.305158
-2.91403 1.60744 0.564909
-3.02709 2.08175 0.021586
-2.87501 2.07662 0.630995
-2.74176 1.83799 0.435033
-2.79829 2.07514 0.163372
-2.72225 2.07258 0.468077
-2.97056 1.8446 0.293247
-2.89452 1.84203 0.597952
-2.95105 2.07919 0.32629
-5.39985 0.358755 0.933432
-5.34934 0.453264 0.543553
-5.56264 0.558471 0.829524
-5.70805 0.297641 0.954678
-5.37459 0.40601 0.738492
-5.48124 0.458613 0.881478
-5.55395 0.328198 0.944055
-5.45599 0.505868 0.686538
-5.52869 0.375452 0.749116
-5.63535 0.428056 0.892101
-4.17913 0.323834 -0.696515
-4.36183 0.516245 -0.417662
-4.60784 0.019305 -0.528365
-4.46586 0.364911 -0.72315
-4.27048 0.42004 -0.557088
-4.39349 0.17157 -0.61244
-4.3225 0.344372 -0.709832
-4.48483 0.267775 -0.473013
-4.41384 0.440578 -0.570406
-4.53685 0.192108 -0.625757
-5.9377 0.438799 -0.558905
-5.87927 0.529091 -0.848565
-6.25926 0.555743 -0.831354
-6.07929 0.245277 -0.969453
-5.90849 0.483945 -0.703735
-6.09848 0.497271 -0.695129
-6.00849 0.342038 -0.764179
-6.06927 0.542417 -0.839959
-5.97928 0.387184 -0.909009
-6.16928 0.40051 -0.900404
-3.64743 2.72944 0.180305
-3.74077 2.63873 0.0981025
-3.72354 2.48298 0.110576
-3.62151 2.61499 -0.0069465
-3.98168 0.388062 0.141859
-3.76543 0.320245 0.603448
-3.81143 0.566919 0.204361
-3.70331 0.533011 0.435156
-4.03868 0.589149 0.228897
-3.87356 0.354154 0.372653
-3.93055 0.55524 0.459691
-6.17342 0.027823 -0.593282
-6.59748 0.255766 -0.966739
-6.35964 0.547779 -0.240473
-6.21634 0.291783 -0.712318
-6.42837 0.405755 -0.899047
-6.30945 0.551761 -0.535914
-6.38545 0.141794 -0.78001
-6.26653 0.287801 -0.416878
-6.47856 0.401772 -0.603606
-5.98474 0.742767 -0.66955
-5.96122 0.590783 -0.614227
-6.122 0.649255 -0.750452
-5.93201 0.635929 -0.759057
-5.86659 0.345457 -0.129882
-5.96054 -0.099592 -0.035866
-6.02 0.18664 -0.361582
-6.11312 0.446618 -0.185177
-5.91357 0.122933 -0.082874
-6.06698 -0.0358845 -0.314574
-6.16009 0.224094 -0.13817
-1.10421 0.363269 -0.931684
-0.773878 0.737644 -0.67519
-0.520452 0.269543 -0.962988
-0.384634 0.008888 -0.353445
-0.939043 0.550457 -0.803437
-0.812329 0.316406 -0.947336
-0.74442 0.186079 -0.642564
-0.647165 0.503594 -0.819089
-0.579256 0.373266 -0.514317
-0.452543 0.139215 -0.658216
-2.85287 -3.00249 -1.21636
-3.23054 -2.92385 -1.196
-3.06719 -3.3306 -1.25351
-2.88006 -3.17233 -1.03724
-3.06889 -3.13301 -1.02706
-2.98722 -3.33639 -1.05581
-3.0417 -2.96317 -1.20618
-2.96003 -3.16654 -1.23493
-3.14886 -3.12722 -1.22475
-3.38618 -2.05134 -0.098565
-2.37808 -2.56123 -0.134541
-2.49252 -2.47812 0.422472
-2.41131 -1.89586 0.044632
-2.88213 -2.30628 -0.116553
-2.93935 -2.26473 0.161954
-2.89875 -1.9736 -0.0269665
-2.4353 -2.51967 0.143966
-2.39469 -2.22855 -0.0449545
-2.45192 -2.18699 0.233552
-1.85713 -0.413967 0.42138
-1.65927 -0.390905 0.920431
-1.2503 -0.077569 0.384148
-1.80595 -0.084043 0.474172
-1.70702 -0.072512 0.723698
-1.50254 0.084156 0.455557
-1.7582 -0.402436 0.670905
-1.55371 -0.245768 0.402764
-1.45478 -0.234237 0.652289
-2.09043 2.55218 0.167395
-2.0659 2.66009 -0.048555
-2.19298 2.68445 0.126765
-2.18072 2.73841 0.0187895
-2.07816 2.60614 0.05942
-2.21652 2.53485 0.109564
-2.20426 2.58881 0.001589
-4.01665 2.44382 0.136481
-3.97233 2.67361 0.084512
-3.92539 2.49592 0.0761905
-3.99449 2.55872 0.110496
-4.01103 2.46769 0.005291
-3.90323 2.61082 0.050206
-3.98887 2.58259 -0.0206935
-3.92754 1.80484 -0.220103
-4.28096 1.83407 -0.225431
-4.13592 1.88983 -0.461486
-4.146 2.03152 -0.278406
-4.10425 1.81945 -0.222767
-4.03173 1.84734 -0.340795
-4.03677 1.91818 -0.249254
-4.20844 1.86195 -0.343458
-4.21348 1.9328 -0.251918
-4.14096 1.96068 -0.369946
-4.04038 -5 0.949212
-3.62468 -5 1.26221
-3.84559 -4.54287 1.07336
-3.71487 -5 0.728948
-3.83253 -5 1.10571
-3.94299 -4.77144 1.01129
-3.87763 -5 0.83908
-3.73513 -4.77144 1.16779
-3.66977 -5 0.99558
-3.78023 -4.77144 0.901156
-1.37334 0.812082 -0.583544
-0.975724 0.961208 -0.275823
-1.19336 -0.166381 -0.273753
-1.17453 0.886645 -0.429683
-1.07361 0.774863 -0.629367
-1.28335 0.32285 -0.428648
-0.874801 0.849426 -0.475506
-1.08454 0.397413 -0.274788
-0.983618 0.285631 -0.474471
-3.83515 -1.82017 -0.741539
-3.34976 -1.58414 -0.592596
-3.50394 -2.07825 -1.02313
-3.59245 -1.70215 -0.667067
-3.66955 -1.94921 -0.882335
-3.61067 -1.93575 -0.420052
-3.42685 -1.83119 -0.807863
-3.36797 -1.81774 -0.345581
-3.44506 -2.06479 -0.560848
-2.72946 0.769161 0.094533
-2.75119 0.681139 -0.326037
-2.98528 1.02631 -0.281501
-3.08113 0.734324 -0.34324
-2.74032 0.72515 -0.115752
-2.85737 0.897737 -0.093484
-2.90529 0.751742 -0.124353
-2.86823 0.853726 -0.303769
-2.91616 0.707731 -0.334639
-3.03321 0.880319 -0.31237
-2.94023 -2.47675 -0.674772
-3.14499 -2.03044 -0.633684
-3.22209 -2.2775 -0.848951
-3.16321 -2.26404 -0.386669
-3.03914 -4.25341 0.579285
-2.64287 -3.80807 0.20828
-2.47531 -4.18593 0.714333
-2.97264 -3.41482 0.618231
-2.84101 -4.03074 0.393783
-2.75723 -4.21967 0.646809
-3.00589 -3.83412 0.598758
-2.55909 -3.997 0.461307
-2.80776 -3.61144 0.413255
-2.72397 -3.80037 0.666282
-2.39684 -0.595487 -0.803365
-1.98884 -0.54749 -0.836812
-2.24172 -0.466498 -0.098067
-2.21295 -0.01831 -0.514797
-2.19284 -0.571489 -0.820088
-2.31928 -0.530992 -0.450716
-2.3049 -0.306899 -0.659081
-2.11528 -0.506994 -0.46744
-2.1009 -0.2829 -0.675804
-2.22734 -0.242404 -0.306432
-3.36239 -4.55484 -1.31864
-3.11171 -4.25429 -0.873787
-2.86199 -4.55394 -1.36046
-2.79118 -5 -0.96439
-3.23705 -4.40456 -1.09621
-3.11219 -4.55439 -1.33955
-3.07678 -4.77742 -1.14151
-2.98685 -4.40411 -1.11712
-2.95144 -4.62714 -0.919088
-2.82658 -4.77697 -1.16243
-3.88203 2.65205 -0.416886
-3.48121 2.84727 -0.340672
-3.82273 3 -0.474998
-3.72541 2.76868 -0.627028
-3.68162 2.74966 -0.378779
-3.85238 2.82603 -0.445942
-3.80372 2.71037 -0.521957
-3.65197 2.92364 -0.407835
-3.60331 2.80798 -0.48385
-3.77407 2.88434 -0.551013
[...]
POINT_DATA 7451
 
FIELD FieldData 2
velocity 3 7451 double
-0.122639 -0.347787 0.009697
1.63575e-030 3.69458e-030 -2.06368e-031
4.74202e-031 1.29317e-030 -6.09598e-032
1.36843e-030 3.67827e-030 -1.88458e-031
-0.0835293 -0.204 0.0115946
-0.0727121 -0.200023 0.00937941
-0.0804487 -0.232803 0.0124379
-1.87687e-018 -4.55029e-018 3.18845e-019
5.67966e-018 1.41508e-017 -1.12011e-018
1.99302e-029 -8.5554e-030 -4.64679e-030
9.45168e-030 3.14593e-030 -2.16074e-031
-0.411493 -0.10922 0.00111307
-0.627531 -0.142533 0.00757875
-0.707594 -0.230763 0.00633267
-0.227339 -0.0769223 0.00709285
-0.306711 -0.093144 0.0099272
-0.405969 -0.146865 0.00948451
-0.535781 -0.134259 0.00707203
-0.593573 -0.174508 0.00543863
-0.677127 -0.192594 0.00859417
1.01471e-028 -3.14587e-031 2.92733e-032
-0.848905 0.00733375 -0.000630266
-1.1074 5.26707e-005 -0.00061155
5.85886e-029 -2.36287e-031 5.65933e-032
-0.552848 0.00344821 7.95474e-005
-0.837097 1.598e-005 -0.00253538
-1.34545e-016 2.51125e-019 -3.1568e-019
-1.00967 0.00129306 -7.97317e-005
-0.480019 0.00635719 -0.00080019
-0.743268 0.00192661 -0.000179247
3.45216e-029 3.56719e-030 6.09902e-032
2.27275e-029 1.44953e-030 2.93279e-031
-0.701481 -0.105059 -0.0136585
-0.886694 -0.0624284 -0.00506722
-1.05881e-016 -6.61706e-018 -1.44985e-018
-0.423423 -0.0481647 -0.00388666
-0.527181 -0.0335379 -0.00348518
-0.404164 -0.0313194 -0.0075334
-0.506301 -0.0232505 -0.00486899
-0.799751 -0.0860394 -0.00844982
-4.41993e-030 -6.76728e-029 2.12936e-030
0.0260418 0.422552 0.00296791
-4.82747e-030 -8.05342e-029 2.67473e-030
-8.49416e-031 -1.01068e-029 7.26095e-036
0.0234545 0.286757 -0.00371069
-6.27094e-017 -5.77489e-016 1.85234e-017
-3.96994e-018 -4.00851e-017 5.57288e-019
0.0265775 0.340169 -0.0057379
0.0219367 0.251368 0.000650602
-5.70764e-017 -6.11491e-016 1.05671e-017
-0.832578 -0.0163681 -0.00239197
-1.00568 -0.00959337 -0.00226255
-0.905266 -0.013004 -0.000898794
-1.01283 -0.00261302 -0.000990465
-1.13476 -0.0173446 -0.00318984
-0.987167 -0.0172464 -0.00228257
-1.11863 -0.0046797 -0.0038789
-1.17278 -0.00249976 -0.000471002
-1.27317 -0.0170181 -0.00154831
-0.564502 -0.186611 0.00452481
-0.57091 -0.101894 -0.0200327
1.96423e-029 5.36907e-030 2.06421e-031
-0.624678 -0.165459 -0.00817797
-0.690203 -0.154619 -0.00383403
-0.30995 -0.108646 0.00314487
-0.63594 -0.112121 -0.0187469
-0.342446 -0.0927359 -0.0101665
-0.390495 -0.0839486 -0.00820821
-0.430936 -0.455719 -0.0226397
-0.467339 -0.267901 -0.0507875
-0.606885 -0.338329 -0.0150864
-0.239898 -0.30142 -0.000812516
-0.465924 -0.387889 -0.0396501
-0.520529 -0.399989 -0.0203455
-0.394667 -0.419647 -0.0165607
-0.554801 -0.312094 -0.0328135
-0.387476 -0.329597 -0.024972
-0.423771 -0.336179 -0.00807666
-1.80142e-029 -6.84151e-030 1.24617e-030
0.34879 0.0527952 -0.00675502
-2.16248e-029 -6.53548e-030 -3.91339e-031
-4.57286e-030 -2.4873e-031 3.07616e-032
0.188245 0.030285 -0.00643733
6.03051e-017 6.2257e-018 2.22247e-018
3.22286e-018 2.34818e-019 -3.30212e-020
0.213315 0.0179433 -0.00150479
0.199079 0.0116266 0.000878165
-6.92766e-017 -9.23388e-019 -8.00725e-019
2.49982e-017 1.16106e-017 -6.93216e-019
2.89361e-030 1.31897e-030 -5.49611e-032
-0.509116 -0.210886 0.00887085
3.09101e-030 1.26303e-030 -5.73379e-032
1.25049e-017 6.26001e-018 -3.86256e-019
-0.286781 -0.126803 0.0066408
9.83896e-017 4.41425e-017 -3.52423e-018
-0.286929 -0.138408 0.00765268
1.5244e-016 7.78972e-017 -3.3599e-018
-0.316469 -0.13508 0.0057305
-0.0332357 -0.236556 -0.0137426
-0.0204352 -0.25184 -0.00890608
-0.0126004 -0.236005 -0.00708941
-0.052421 -0.49903 -0.0155354
-0.0290187 -0.266717 -0.0113097
-0.023177 -0.237378 -0.0105963
-0.0456629 -0.378487 -0.0166047
-0.0188042 -0.269218 -0.00958049
-0.0381998 -0.394761 -0.0125929
-0.0321709 -0.383047 -0.0119489
0.0111636 0.272433 0.00819496
-6.74661e-031 -2.19312e-029 -1.11073e-030
-3.37433e-031 -1.68175e-029 -9.47453e-031
-0.00171658 0.228853 0.0129868
0.00636023 0.14637 0.00815135
0.00548023 0.143564 0.0081667
0.00465497 0.27852 0.0117854
2.31666e-029 2.34067e-030 6.73077e-029
0.00211598 0.137025 0.00928214
0.00106953 0.118116 0.00834805
1.01036e-030 3.72092e-030 -1.06094e-031
-0.0907854 -0.371475 0.00397923
-0.0485881 -0.229712 0.00505468
-0.0581655 -0.233542 0.00635651
-0.0604173 -0.194378 0.00627266
-0.0276708 -0.117353 0.00345149
-0.110609 -0.372171 0.00595947
-0.0762308 -0.329863 0.0057557
-0.0825722 -0.287366 0.00769112
-2.72963e-031 -4.93078e-030 -2.42358e-031
-3.60746e-018 -7.00205e-017 -5.19498e-018
3.53545e-018 6.26086e-017 4.55089e-018
0.00761288 0.138447 0.00674759
1.07681e-029 1.8399e-031 1.9156e-033
1.42665e-029 2.38424e-031 1.67076e-032
1.86124e-029 1.98031e-031 4.52868e-032
6.95895e-017 1.53904e-018 8.3376e-020
-0.521173 -0.0128288 -0.000489549
-5.19875e-030 -4.7161e-029 -2.38216e-029
-0.511652 -0.00650467 -0.000654982
-1.81835e-017 -1.84252e-019 1.71779e-019
-0.520717 -0.00587176 -0.00102448
-1.57097e-028 3.95737e-031 -7.608e-032
0.485863 0.000581349 0.000722358
-5.80899e-029 3.92592e-032 -1.36906e-031
0.473352 -0.00219464 0.00130714
0.416497 -0.00125911 0.000283654
-6.67953e-017 3.32352e-020 -3.04957e-019
0.375849 -0.000215053 0.0013624
0.394009 0.000710159 0.000858389
0.536116 -0.00104111 0.00163518
0.397393 -0.00114925 0.0017409
-0.0806465 -0.33096 -0.029471
-0.119259 -0.346718 -0.0350344
-0.171371 -0.53426 -0.0265117
-0.0915248 -0.417575 -0.0220724
-0.107517 -0.366292 -0.0354429
-0.135175 -0.483209 -0.0343365
-0.0942483 -0.404763 -0.0304705
-0.179144 -0.520723 -0.0387147
-0.108945 -0.38949 -0.0291064
-0.152838 -0.554172 -0.0321588
3.25686e-030 4.29597e-031 -7.10946e-032
-0.669646 -0.123945 0.00998587
7.04315e-030 5.64262e-031 -1.23157e-031
3.12703e-029 2.08688e-030 -1.59634e-031
-0.377275 -0.0499113 0.0102378
-9.80365e-017 -7.72943e-018 3.39516e-018
1.36411e-016 6.13033e-018 -3.93403e-018
-0.364837 -0.0441729 0.00886017
-0.380789 -0.0310817 0.00696115
-2.22404e-017 -6.94547e-019 7.72733e-019
-0.404219 -0.101654 -0.0145448
-0.687744 -0.233349 -0.0112993
-0.729805 -0.112741 -0.00684048
-0.409498 -0.117966 -0.00507747
-0.567805 -0.169825 -0.0140311
-0.583556 -0.118175 -0.01148
-0.411464 -0.114091 -0.00958285
-0.744401 -0.174858 -0.0115037
-0.579465 -0.181495 -0.00653262
-0.594439 -0.127364 -0.00633204
-0.628084 -0.0135456 0.00196558
3.50404e-030 4.09251e-032 -7.39555e-033
3.12152e-029 3.79386e-031 -1.61157e-031
1.43717e-029 1.92824e-031 -2.93685e-032
-0.338444 -0.00334241 0.0013137
-0.335982 -0.00628271 0.00284658
-0.366581 -0.00422286 0.00204002
-2.40064e-016 -1.90001e-018 2.11664e-018
-1.73631e-016 -2.34571e-019 1.05291e-018
-1.15444e-029 -2.23771e-029 5.02361e-029
-0.0589029 -0.397688 0.00553932
-0.0558453 -0.320943 0.00571348
-0.0868311 -0.369779 0.0068056
-0.0795146 -0.413171 0.00421604
-0.742668 -0.156529 -0.0446241
-0.409683 -0.0377592 -0.0219012
-0.605235 -0.207789 -0.0504983
-0.464742 -0.146968 -0.0412741
-0.695963 -0.266004 -0.0318854
-0.61571 -0.0992053 -0.038172
-0.548008 -0.211084 -0.023467
-0.812965 -0.0103067 0.000550945
-3.67365e-017 4.34728e-020 8.29517e-020
-0.81333 -0.00909397 0.00354349
-0.508156 -0.00732791 0.00302052
-2.6152e-029 -3.19675e-029 6.3056e-029
-0.50821 -0.00580929 0.00457763
-0.461691 -0.00796914 0.00171939
-0.944384 -0.0126243 0.00308012
-0.591965 -0.00285249 0.00304239
5.66294e-030 9.863e-032 -9.27505e-033
-0.343032 -0.00642843 0.00204991
-7.74275e-017 -1.25979e-018 1.73803e-018
-1.02256e-016 -8.34344e-019 6.62578e-019
-1.11607 -0.0514149 0.00294984
-1.25087 -0.0418443 -0.00322246
-1.06263 -0.0266034 0.000724962
-0.981023 -0.0224414 0.00354799
-1.24876 -0.0507519 0.000248968
-1.14136 -0.026279 -0.0014486
-1.18985 -0.0274396 0.00150273
1.986e-017 -1.52774e-019 -3.13971e-019
-5.12385e-029 4.89135e-031 4.9514e-031
-1.89952e-029 5.64914e-032 9.90546e-032
0.476976 -0.00456841 -0.000861043
-3.05516e-017 2.81249e-019 4.4329e-019
1.41106e-029 -3.38799e-029 1.02417e-028
0.291205 -0.00292962 -0.00291624
-3.14738e-017 1.02745e-019 3.20705e-019
0.325853 -0.0036331 -0.00231902
0.294274 0.000103047 -0.00200025
8.12425e-032 -7.64992e-030 -5.98544e-031
-3.354e-031 -2.34899e-029 -1.41939e-030
-5.86243e-033 -2.83416e-030 -2.11478e-031
-0.00125081 0.120424 0.00925995
0.00196588 0.127402 0.0101196
2.41188e-005 0.116139 0.00813155
-6.98714e-019 -5.92414e-017 -7.11148e-018
-8.18003e-020 2.71199e-017 2.41986e-018
-1.26489e-018 -5.73386e-017 2.61074e-018
0.0214906 0.695418 -0.00774571
-0.025173 0.503973 -0.00181507
-0.0275861 0.716287 -0.0388469
-0.0277513 0.648041 -0.0188156
-0.00715044 0.738155 -0.00511523
-0.00369306 0.893417 -0.0276899
-0.00634495 0.84026 -0.0165784
-0.027699 0.657916 -0.0171427
-0.026648 0.577722 -0.00769106
-0.0290319 0.710287 -0.0303487
0.366573 0.162084 0.0246782
-2.77596e-029 -1.83893e-030 -2.06096e-031
0.456406 0.015307 -0.00232667
0.408724 0.106277 -0.000226806
0.246322 0.0081834 -0.000848336
0.42266 0.0335351 -0.00201329
0.19518 0.00559672 0.00935314
0.41258 0.0529042 -0.00105296
0.268203 0.00135082 -0.00298848
-1.95538e-018 -2.71818e-017 -1.22826e-018
1.15652e-031 1.31339e-030 6.43896e-032
-0.00755323 -0.120209 -0.00453815
-0.00808431 -0.115132 -0.00401457
-4.1466e-018 -5.21091e-017 -2.22401e-018
-0.0166135 -0.1298 -0.00752349
-0.0152912 -0.121858 -0.00788604
-7.4401e-018 -3.01053e-017 1.14184e-018
2.97419e-031 1.88755e-030 -4.05679e-032
-0.031246 -0.133453 0.00429662
1.25089e-017 6.64493e-017 -1.65118e-018
2.14181e-029 -7.05011e-030 -1.2628e-031
-0.0212156 -0.131033 0.00194885
2.18424e-017 1.18598e-016 -2.55173e-018
-0.184181 -0.295521 0.00828988
1.54754e-030 2.16281e-030 -1.22254e-031
7.29269e-031 1.16973e-030 -5.99879e-032
5.47448e-031 9.51528e-031 -5.04371e-032
-0.113095 -0.170184 0.00970942
-0.103312 -0.165056 0.00849852
-0.100231 -0.169922 0.00881909
-5.15332e-017 -7.77168e-017 5.82959e-018
-3.23036e-016 -5.1251e-016 3.83255e-017
-1.97979e-016 -3.32565e-016 2.33994e-017
-1.41349e-031 -4.35427e-030 1.93873e-031
-2.22305e-031 -1.29616e-029 6.18214e-031
-6.74773e-031 -2.19195e-029 1.24018e-030
0.0101737 0.415787 -0.0152728
-3.65071e-018 -1.71281e-016 8.18217e-018
-5.88572e-019 -1.93304e-017 1.03068e-018
0.00658223 0.251265 -0.00990183
9.13299e-019 3.70226e-017 -2.1131e-018
0.00615573 0.315598 -0.0148826
0.00911274 0.30503 -0.016311
-5.92053e-029 -5.79508e-032 1.32362e-030
-6.21863e-029 4.02014e-031 6.67257e-031
0.480723 -0.0115496 0.000124274
2.52797e-017 3.58453e-020 -6.35578e-019
-2.74996e-017 1.55013e-019 6.18987e-019
0.383948 -0.00314561 -0.00819591
-6.25085e-017 5.41129e-019 6.12702e-019
0.420363 -0.00182955 -0.00592065
0.370398 -0.00552649 -0.00331117
5.95042e-020 9.01512e-019 4.44421e-020
0.00716552 0.401289 0.0163469
-2.27071e-030 -6.3439e-029 -2.21184e-030
0.00822676 0.219341 0.0106181
-4.29923e-018 -7.14634e-017 -9.60469e-018
0.0195731 0.388997 0.00866952
0.0075356 0.1879 0.0124841
0.0147802 0.579934 0.00796405
0.0157313 0.380353 0.013865
0.0201621 -0.0571765 -0.0514093
0.0192084 -0.0110486 -0.0338977
-0.128934 -0.209363 -0.0355434
-0.135624 -0.100863 -0.0472737
0.0179234 -0.0449189 -0.0472924
-0.0619564 -0.160619 -0.0467735
-0.0627775 -0.103538 -0.0564914
-0.0455039 -0.0933471 -0.0321251
-0.0514284 -0.0538265 -0.0410664
-0.126434 -0.158573 -0.0419581
-0.0017138 0.366759 0.0169611
0.00690203 0.411803 0.0171848
0.0072262 0.227414 0.0137446
0.00903363 0.571077 0.0102262
0.000658692 0.672767 -0.0325472
-0.0158452 0.659988 -0.0186254
-0.0173576 0.547598 -0.0342727
-0.000632832 0.750314 -0.0471712
-0.00825879 0.714879 -0.0260966
-0.009768 0.667555 -0.0362511
0.000345254 0.712542 -0.040641
-0.0187604 0.648624 -0.0275013
-0.0102822 0.749051 -0.0304421
-0.0128682 0.683614 -0.042054
1.78337e-017 5.38377e-017 3.75747e-018
5.69372e-017 1.41278e-018 9.76304e-020
0.401758 0.43908 -0.0212071
0.302121 0.107218 -0.0259776
1.45196e-029 3.91531e-029 4.42753e-029
0.265817 0.292799 -0.014777
0.201743 0.112085 -0.0179822
0.299561 0.167791 -0.0169321
0.231702 0.057271 -0.0124556
0.385083 0.249834 -0.0291742
8.04871e-019 2.11519e-017 1.6381e-018
0.00198986 0.209536 0.00805473
2.01845e-031 -1.42072e-029 -5.11702e-031
-0.00166583 0.155924 0.00232055
0.00230987 0.100014 0.00570234
1.34065e-018 3.34351e-017 4.45196e-018
0.000570896 0.0894493 0.00314677
-5.06119e-005 0.0998475 0.00531738
-0.000659623 0.186562 0.00438518
-0.00105677 0.0783996 0.00273645
6.62181e-031 3.58113e-030 -7.47543e-032
-0.0414659 -0.322372 0.00194239
6.15997e-031 1.14833e-029 -1.0975e-031
1.05725e-030 5.2367e-030 -9.35525e-032
-0.02785 -0.190299 0.00366874
-2.86049e-017 -2.43017e-016 5.44688e-018
2.3824e-029 -5.18619e-030 1.6611e-029
-0.0179819 -0.184119 0.00208175
-0.0258194 -0.176663 0.00175287
-2.28983e-017 -1.98124e-016 2.84231e-018
0.51707 -0.00028546 -0.000178924
-2.16565e-029 2.72031e-032 -4.71957e-033
-2.25171e-029 1.42242e-032 4.38466e-033
-3.8357e-029 5.27109e-032 6.96071e-033
0.34744 0.000135974 -8.72517e-005
0.349061 -0.000132257 -0.000229821
0.346997 -0.000302186 6.11062e-005
-1.94496e-016 -6.50353e-020 1.0108e-019
1.37572e-029 4.13894e-021 -1.84828e-029
2.53752e-017 -1.69186e-020 -4.59648e-021
0.201942 0.746209 -0.0467166
-0.0111662 0.790422 -0.0293124
-0.017044 0.928959 -0.0900632
0.0360984 0.707603 -0.00580275
0.0920972 0.893848 -0.0539715
0.0691105 0.879783 -0.0777702
0.136447 0.837153 -0.0403052
-0.017551 0.973039 -0.0674717
0.0525011 0.809111 -0.0200417
0.0434958 0.977083 -0.0585326
-8.11584e-029 1.16264e-031 2.27712e-032
-4.77805e-029 9.04081e-032 9.21198e-032
-5.93365e-029 4.7452e-031 -5.6045e-032
0.472868 -0.00386062 0.000153919
3.90518e-019 1.05346e-019 -6.31134e-022
3.84566e-019 -2.26273e-020 -4.69653e-022
0.373219 4.92358e-005 -0.00126312
9.07857e-019 -2.14842e-022 3.68426e-030
0.333178 0.000530429 -0.000987991
0.379265 -0.00257339 0.000709849
8.78632e-030 5.12468e-030 -2.67793e-031
-0.394547 -0.240171 0.0117463
2.99175e-030 1.77685e-030 -1.11674e-031
-0.26868 -0.172517 0.0101569
-0.26069 -0.139662 0.00813629
5.74054e-016 3.87258e-016 -2.9208e-017
-0.452009 -0.228817 0.0102341
-0.237598 -0.156023 0.0114385
-0.250328 -0.137796 0.00814576
-0.841134 0.000947929 0.00603252
1.92162e-028 -2.50681e-031 -2.82313e-031
1.42788e-029 -9.33561e-032 -1.78567e-031
-0.840073 0.00521247 0.00298665
-0.556629 0.00279159 0.00282136
-0.50128 -0.000362358 0.00637636
-0.930016 0.0041157 0.00362878
-2.46721e-029 3.49908e-029 6.51062e-029
-0.473414 0.00440463 0.00198033
-0.505878 0.006477 0.00357633
-3.86341e-029 3.35469e-031 1.96942e-031
-1.41467e-029 1.95493e-031 1.60223e-031
-2.1855e-029 -9.67279e-031 -9.06605e-033
-4.55188e-017 1.95694e-018 3.13029e-019
-1.17786e-018 1.65886e-020 3.46333e-020
0.297377 -0.00205837 -0.00130737
-1.6154e-017 3.90295e-019 5.52564e-019
0.274475 -0.00506224 -0.00221921
0.28382 0.00474046 -0.0102353
-8.479e-029 1.39953e-030 -3.2188e-031
0.381447 -0.0063935 0.000710098
0.319177 -0.00978634 0.00214741
0.345763 -0.00697144 0.000833982
0.530835 -0.00837773 0.000113479
0.548595 -0.00563785 -8.824e-005
0.48314 -0.0104467 -0.000470979
-1.8523e-029 -2.33962e-031 3.17911e-032
-3.47809e-029 4.26062e-031 -2.16385e-032
5.36175e-017 -2.50605e-018 -2.97584e-019
4.68981e-017 -2.57142e-018 -4.46919e-019
0.278669 -0.00247177 -0.000747584
4.20103e-018 -2.04779e-019 -4.84857e-020
0.286497 -0.00350504 -0.00278474
-6.48895e-029 2.74844e-031 2.6387e-031
0.47252 0.0015762 -0.000704337
-4.31629e-029 1.53113e-031 1.11692e-031
0.289194 -0.00154869 -0.00082571
-9.74095e-017 1.63254e-019 6.98483e-019
0.370175 -0.00306628 -0.00186964
0.300841 -0.000111336 -0.000780655
0.495364 -0.0015925 -0.000800146
0.317847 0.000604678 -0.00218252
-1.73528e-029 1.31176e-031 -1.39779e-031
-5.11231e-029 7.65911e-033 -3.33824e-031
-5.95345e-029 3.23963e-031 -2.87839e-031
3.33396e-017 -5.2733e-019 8.29417e-019
-3.58693e-017 6.07321e-019 -7.95338e-019
0.292329 -0.00385938 0.00573652
-2.34314e-017 3.25351e-019 -3.85008e-019
0.304012 -0.00292675 0.00386476
0.30376 -0.00332334 0.0028864
1.47112e-030 -8.56657e-030 4.70141e-031
-0.180463 0.11742 -0.0216483
2.0348e-030 -3.92738e-030 6.01494e-031
0.075029 0.217284 -0.0290394
-0.0600287 0.0856914 -0.0056562
-1.36512e-017 6.97285e-018 1.90836e-020
0.0087926 0.137784 -0.00697652
-0.0681413 0.0435095 -0.00511658
-0.0686919 0.180806 -0.023579
-0.00393721 0.0772562 -0.00787291
-6.99296e-030 -3.88353e-030 -8.8128e-031
-5.63542e-029 -7.74027e-030 -1.17995e-030
-9.58148e-030 -2.08587e-029 2.74881e-031
0.204925 0.0454159 0.0361742
0.243263 0.088017 0.0219762
0.256274 0.198541 0.0516693
2.9587e-030 5.48595e-029 -3.39133e-029
5.60785e-017 5.33316e-017 1.30207e-017
-6.97274e-017 -4.53126e-017 -1.35169e-017
-2.27168e-029 -2.09993e-031 6.85617e-032
1.55072e-029 3.84269e-019 -7.23194e-029
6.2178e-017 -1.60135e-018 -4.63935e-020
0.309166 -0.000116491 0.00129475
-0.0938586 -0.265817 0.00281664
1.69609e-030 3.44107e-030 -5.63935e-032
-0.152799 -0.264402 -0.00452503
3.77394e-030 8.48586e-030 5.028e-032
-0.0602032 -0.138117 0.00369271
-0.127376 -0.273839 -0.000672982
-0.0606217 -0.146195 0.00229148
-0.0840696 -0.152537 0.00169294
9.946e-018 1.96262e-017 -4.71798e-019
-0.0734877 -0.139811 -0.000105645
-0.288138 -0.325366 -0.0316458
-0.268963 -0.486574 -0.0343016
-0.11876 -0.184384 -0.0159791
-0.221619 -0.281883 -0.0388261
-0.287052 -0.416677 -0.0337621
-0.198077 -0.273158 -0.025712
-0.224928 -0.368435 -0.0418239
-0.133753 -0.206996 -0.0226808
-0.212809 -0.36417 -0.0305877
0.470796 0.00161008 8.47595e-005
-1.02154e-028 -2.80084e-031 3.689e-031
-4.18828e-029 -1.97124e-031 5.62681e-032
0.48395 0.00210383 -0.000743988
0.307124 0.00245476 -0.000899179
0.290237 0.00241472 0.000644872
0.490915 0.00258604 -0.00106876
4.46336e-029 -8.81908e-030 -1.10802e-028
0.401761 -0.00144835 -0.00159019
0.35332 -0.000374334 -0.000337318
-1.83453e-029 2.68714e-032 1.71277e-032
-4.8618e-029 1.41413e-032 -7.24445e-033
-9.07693e-029 4.72502e-032 5.26266e-032
1.39487e-029 5.00224e-029 8.81493e-029
0.294745 -0.000462647 -0.000206949
6.40158e-017 3.17899e-019 -3.37444e-020
0.323068 0.000662999 0.00044541
-3.03074e-017 -1.00869e-019 2.95469e-020
0.29484 -7.80269e-005 -0.000408646
-2.74845e-029 4.98552e-032 -3.26628e-032
-5.33026e-029 5.80188e-032 -1.14653e-031
0.512799 -0.000581836 0.000267283
-9.20974e-029 1.24628e-031 -2.23131e-031
8.38752e-017 -2.09543e-019 4.16218e-019
0.387065 -0.000887277 0.000775835
-6.61635e-017 3.72947e-019 -1.68519e-019
0.397807 -0.000723906 0.00198027
3.1424e-017 5.69257e-020 2.07956e-019
0.377404 -0.0022675 0.000651861
0.469881 0.00115004 -0.000621406
-1.01938e-028 4.29405e-032 1.04329e-031
0.539538 8.67534e-005 -7.08848e-005
0.34443 0.000250088 -0.00034527
0.472851 0.00199098 0.000424603
0.376513 -0.00155268 0.00111293
0.54618 0.00196989 -0.000950147
0.383154 0.000804379 -0.000343857
1.35613e-029 1.29886e-031 -1.06766e-031
-0.347531 -0.00529433 0.0047558
8.41234e-017 9.13049e-019 -5.24745e-018
-0.462743 -0.00486229 0.00487775
-0.75511 -0.0106621 0.00460501
1.31505e-030 -6.32057e-029 4.19907e-030
1.54517e-031 -1.16693e-028 7.57045e-030
-0.00982768 0.691281 -0.044286
0.000103418 0.700636 -0.0450427
-0.0122227 0.484695 -0.0328027
1.39999e-018 -9.50342e-017 6.42531e-018
-0.00809954 0.579484 -0.0377716
0.00062686 0.517155 -0.00398062
0.0119653 0.277746 0.00189693
0.00411435 0.524293 -0.0100335
0.000105968 0.353765 -0.000990495
0.00909251 0.424264 -0.000292378
0.00329582 0.522693 -0.00720346
0.000305753 0.439223 -0.00141088
0.0083264 0.416289 -0.00360821
0.00511975 0.342295 0.000338194
0.00183927 0.454019 -0.00434797
0.00721422 0.267285 0.00585831
0.00181627 0.375828 0.00469201
0.000910982 0.285139 0.00272726
8.90098e-029 1.65411e-030 7.14365e-031
1.49642e-028 3.0108e-030 1.04721e-030
2.67271e-029 3.11188e-031 1.30215e-031
-0.631315 -0.00809631 -0.00370871
-0.59525 -0.00887606 -0.00594475
-0.594941 -0.0100227 -0.00361097
-1.35978e-016 3.44681e-019 -1.91241e-018
-1.6063e-016 -2.95814e-018 -1.3741e-018
-1.52622e-016 -3.13128e-018 -1.8706e-018
7.74508e-031 2.93456e-030 -6.44286e-032
-0.164607 -0.492263 -0.00421395
4.33031e-030 2.16056e-029 1.42675e-031
1.62928e-030 7.9961e-030 -1.44022e-031
-0.0952173 -0.35866 0.00658286
4.70036e-030 -4.4256e-030 -2.84075e-029
-4.30244e-017 -2.11052e-016 7.43691e-018
-0.0852175 -0.361367 0.00097812