# vtk DataFile Version 2.0 
output.vtk, Created by Freefem++, via gregorio
ASCII
DATASET UNSTRUCTURED_GRID
POINTS 7451 double
-3.79965 2.23652 0.040848
-4.13429 2.05574 0.276253
-4.09122 2.24524 0.070091
-4.01836 2.27766 0.330071
-3.96697 2.14613 0.158551
-3.94543 2.24088 0.0554695
-3.90901 2.25709 0.185459
-4.11275 2.15049 0.173172
-4.07633 2.1667 0.303162
-4.05479 2.26145 0.200081
-4.81817 0.732763 -0.840268
-4.76136 0.37264 -0.736193
-5.12328 0.495929 -0.550642
-4.73872 0.559667 -0.434419
-4.78977 0.552702 -0.788231
-4.97072 0.614346 -0.695455
-4.77845 0.646215 -0.637344
-4.94232 0.434285 -0.643417
-4.75004 0.466153 -0.585306
-4.931 0.527798 -0.49253
-7.58244 -0.891248 -0.453516
-8 -0.559587 0.124298
-7.26059 -0.264226 0.250847
-7.58828 -0.999993 0.00381
-7.79122 -0.725418 -0.164609
-7.42152 -0.577737 -0.101334
-7.58536 -0.94562 -0.224853
-7.6303 -0.411906 0.187573
-7.79414 -0.77979 0.064054
-7.42444 -0.632109 0.127328
-5.46564 0.048234 0.998836
-5.51396 -0.351144 0.936321
-5.02851 -0.125769 0.598961
-5.56665 -0.148801 0.504295
-5.4898 -0.151455 0.967578
-5.24708 -0.0387675 0.798898
-5.51614 -0.0502835 0.751565
-5.27124 -0.238457 0.767641
-5.5403 -0.249972 0.720308
-5.29758 -0.137285 0.551628
-4.20269 -2.80441 0.102764
-3.63085 -2.57461 -0.287529
-4.13183 -2.29387 0.255347
-4.14432 -2.47254 -0.273935
-3.91677 -2.68951 -0.0923825
-4.16726 -2.54914 0.179055
-4.1735 -2.63848 -0.0855855
-3.88134 -2.43424 -0.016091
-3.88759 -2.52358 -0.280732
-4.13807 -2.38321 -0.009294
-6.25062 -0.085247 0.575431
-6.51584 -0.423084 -0.15939
-6.46019 0.447486 0.293263
-6.75561 -0.174737 0.413139
-6.38323 -0.254165 0.20802
-6.35541 0.181119 0.434347
-6.88822 -0.343655 0.0457285
-6.86039 0.09163 0.272055
-6.48801 0.012201 0.0669365
-4.88162 0.371746 0.655425
-4.51246 -0.112716 0.623981
-4.65723 0.09269 0.995695
-4.69704 0.129515 0.639703
-4.95507 0.122989 0.627193
-4.76942 0.232218 0.82556
-4.77049 -0.119243 0.611471
-4.58484 -0.010013 0.809838
-4.84287 -0.0165395 0.797328
-3.75099 1.20677 0.090288
-3.64118 0.745776 0.266863
-4.09568 0.790235 0.315934
-3.78936 1.07086 0.69071
-3.69609 0.976272 0.178575
-3.92333 0.998502 0.203111
-3.77017 1.13882 0.390499
-3.86843 0.768006 0.291399
-3.71527 0.908319 0.478787
-3.94252 0.930549 0.503322
-2.18572 0.40145 0.915881
-1.75478 0.245881 0.526965
-1.94554 -0.013967 0.999902
-1.76886 0.356252 0.93439
-1.97025 0.323665 0.721423
-2.06563 0.193741 0.957891
-1.97729 0.378851 0.925135
-1.85016 0.115957 0.763433
-1.76182 0.301067 0.730678
-1.8572 0.171143 0.967146
-5.06116 0.824959 0.710182
-4.88551 0.773989 0.80113
-4.92155 0.772883 0.437198
-5.01596 0.602336 0.857802
-4.97333 0.799474 0.755656
-4.99135 0.798921 0.57369
-5.03856 0.713647 0.783992
-4.90353 0.773436 0.619164
-4.95074 0.688163 0.829466
-4.96876 0.687609 0.6475
-2.34262 2.51752 0.051733
-2.4672 2.85727 -0.311185
-2.29554 2.81673 0.086134
-2.65762 2.74748 0.16058
-2.40491 2.6874 -0.129726
-2.31908 2.66712 0.0689335
-2.50012 2.6325 0.106157
-2.38137 2.837 -0.112526
-2.56241 2.80238 -0.0753025
-2.47658 2.7821 0.123357
-3.50303 -3.76846 -0.636668
-3.49422 -3.29308 -1.15018
-3.31427 -3.71149 -1.25136
-2.90724 -3.34218 -0.858121
-3.49863 -3.53077 -0.893424
-3.40865 -3.73997 -0.944014
-3.20514 -3.55532 -0.747394
-3.40425 -3.50228 -1.20077
-3.20073 -3.31763 -1.00415
-3.11076 -3.52683 -1.05474
-4.0054 2.49156 -0.125899
-3.5956 2.50054 -0.194198
-3.83412 2.54803 0.0159
-3.8005 2.49605 -0.160049
-3.90253 2.36404 -0.0425255
-3.91976 2.5198 -0.0549995
-3.69763 2.36853 -0.076675
-3.71486 2.52428 -0.089149
-3.81689 2.39228 0.028374
-3.73452 -3.68531 -1.05781
-3.52439 -3.6984 -1.15459
-3.61437 -3.4892 -1.104
-3.61877 -3.72688 -0.84724
-6.37864 0.944563 0.328331
-6.25891 0.813305 0.581838
-6.65332 0.772267 0.635298
-6.31878 0.878934 0.455085
-6.41941 0.696025 0.310797
-6.51598 0.858415 0.481815
-6.35955 0.630395 0.43755
-6.45612 0.792786 0.608568
-6.55675 0.609877 0.46428
1.62066 -0.841518 -0.540229
1.89324 0.238579 -0.195511
2.01627 -0.690819 -0.723027
2.25185 -0.211859 0.261412
1.75695 -0.30147 -0.36787
1.81846 -0.766169 -0.631628
1.93625 -0.526689 -0.139408
1.95475 -0.22612 -0.459269
2.07254 0.01336 0.0329505
2.13406 -0.451339 -0.230807
-2.56949 2.06853 0.305158
-2.91403 1.60744 0.564909
-3.02709 2.08175 0.021586
-2.87501 2.07662 0.630995
-2.74176 1.83799 0.435033
-2.79829 2.07514 0.163372
-2.72225 2.07258 0.468077
-2.97056 1.8446 0.293247
-2.89452 1.84203 0.597952
-2.95105 2.07919 0.32629
-5.39985 0.358755 0.933432
-5.34934 0.453264 0.543553
-5.56264 0.558471 0.829524
-5.70805 0.297641 0.954678
-5.37459 0.40601 0.738492
-5.48124 0.458613 0.881478
-5.55395 0.328198 0.944055
-5.45599 0.505868 0.686538
-5.52869 0.375452 0.749116
-5.63535 0.428056 0.892101
-4.17913 0.323834 -0.696515
-4.36183 0.516245 -0.417662
-4.60784 0.019305 -0.528365
-4.46586 0.364911 -0.72315
-4.27048 0.42004 -0.557088
-4.39349 0.17157 -0.61244
-4.3225 0.344372 -0.709832
-4.48483 0.267775 -0.473013
-4.41384 0.440578 -0.570406
-4.53685 0.192108 -0.625757
-5.9377 0.438799 -0.558905
-5.87927 0.529091 -0.848565
-6.25926 0.555743 -0.831354
-6.07929 0.245277 -0.969453
-5.90849 0.483945 -0.703735
-6.09848 0.497271 -0.695129
-6.00849 0.342038 -0.764179
-6.06927 0.542417 -0.839959
-5.97928 0.387184 -0.909009
-6.16928 0.40051 -0.900404
-3.64743 2.72944 0.180305
-3.74077 2.63873 0.0981025
-3.72354 2.48298 0.110576
-3.62151 2.61499 -0.0069465
-3.98168 0.388062 0.141859
-3.76543 0.320245 0.603448
-3.81143 0.566919 0.204361
-3.70331 0.533011 0.435156
-4.03868 0.589149 0.228897
-3.87356 0.354154 0.372653
-3.93055 0.55524 0.459691
-6.17342 0.027823 -0.593282
-6.59748 0.255766 -0.966739
-6.35964 0.547779 -0.240473
-6.21634 0.291783 -0.712318
-6.42837 0.405755 -0.899047
-6.30945 0.551761 -0.535914
-6.38545 0.141794 -0.78001
-6.26653 0.287801 -0.416878
-6.47856 0.401772 -0.603606
-5.98474 0.742767 -0.66955
-5.96122 0.590783 -0.614227
-6.122 0.649255 -0.750452
-5.93201 0.635929 -0.759057
-5.86659 0.345457 -0.129882
-5.96054 -0.099592 -0.035866
-6.02 0.18664 -0.361582
-6.11312 0.446618 -0.185177
-5.91357 0.122933 -0.082874
-6.06698 -0.0358845 -0.314574
-6.16009 0.224094 -0.13817
-1.10421 0.363269 -0.931684
-0.773878 0.737644 -0.67519
-0.520452 0.269543 -0.962988
-0.384634 0.008888 -0.353445
-0.939043 0.550457 -0.803437
-0.812329 0.316406 -0.947336
-0.74442 0.186079 -0.642564
-0.647165 0.503594 -0.819089
-0.579256 0.373266 -0.514317
-0.452543 0.139215 -0.658216
-2.85287 -3.00249 -1.21636
-3.23054 -2.92385 -1.196
-3.06719 -3.3306 -1.25351
-2.88006 -3.17233 -1.03724
-3.06889 -3.13301 -1.02706
-2.98722 -3.33639 -1.05581
-3.0417 -2.96317 -1.20618
-2.96003 -3.16654 -1.23493
-3.14886 -3.12722 -1.22475
-3.38618 -2.05134 -0.098565
-2.37808 -2.56123 -0.134541
-2.49252 -2.47812 0.422472
-2.41131 -1.89586 0.044632
-2.88213 -2.30628 -0.116553
-2.93935 -2.26473 0.161954
-2.89875 -1.9736 -0.0269665
-2.4353 -2.51967 0.143966
-2.39469 -2.22855 -0.0449545
-2.45192 -2.18699 0.233552
-1.85713 -0.413967 0.42138
-1.65927 -0.390905 0.920431
-1.2503 -0.077569 0.384148
-1.80595 -0.084043 0.474172
-1.70702 -0.072512 0.723698
-1.50254 0.084156 0.455557
-1.7582 -0.402436 0.670905
-1.55371 -0.245768 0.402764
-1.45478 -0.234237 0.652289
-2.09043 2.55218 0.167395
-2.0659 2.66009 -0.048555
-2.19298 2.68445 0.126765
-2.18072 2.73841 0.0187895
-2.07816 2.60614 0.05942
-2.21652 2.53485 0.109564
-2.20426 2.58881 0.001589
-4.01665 2.44382 0.136481
-3.97233 2.67361 0.084512
-3.92539 2.49592 0.0761905
-3.99449 2.55872 0.110496
-4.01103 2.46769 0.005291
-3.90323 2.61082 0.050206
-3.98887 2.58259 -0.0206935
-3.92754 1.80484 -0.220103
-4.28096 1.83407 -0.225431
-4.13592 1.88983 -0.461486
-4.146 2.03152 -0.278406
-4.10425 1.81945 -0.222767
-4.03173 1.84734 -0.340795
-4.03677 1.91818 -0.249254
-4.20844 1.86195 -0.343458
-4.21348 1.9328 -0.251918
-4.14096 1.96068 -0.369946
-4.04038 -5 0.949212
-3.62468 -5 1.26221
-3.84559 -4.54287 1.07336
-3.71487 -5 0.728948
-3.83253 -5 1.10571
-3.94299 -4.77144 1.01129
-3.87763 -5 0.83908
-3.73513 -4.77144 1.16779
-3.66977 -5 0.99558
-3.78023 -4.77144 0.901156
-1.37334 0.812082 -0.583544
-0.975724 0.961208 -0.275823
-1.19336 -0.166381 -0.273753
-1.17453 0.886645 -0.429683
-1.07361 0.774863 -0.629367
-1.28335 0.32285 -0.428648
-0.874801 0.849426 -0.475506
-1.08454 0.397413 -0.274788
-0.983618 0.285631 -0.474471
-3.83515 -1.82017 -0.741539
-3.34976 -1.58414 -0.592596
-3.50394 -2.07825 -1.02313
-3.59245 -1.70215 -0.667067
-3.66955 -1.94921 -0.882335
-3.61067 -1.93575 -0.420052
-3.42685 -1.83119 -0.807863
-3.36797 -1.81774 -0.345581
-3.44506 -2.06479 -0.560848
-2.72946 0.769161 0.094533
-2.75119 0.681139 -0.326037
-2.98528 1.02631 -0.281501
-3.08113 0.734324 -0.34324
-2.74032 0.72515 -0.115752
-2.85737 0.897737 -0.093484
-2.90529 0.751742 -0.124353
-2.86823 0.853726 -0.303769
-2.91616 0.707731 -0.334639
-3.03321 0.880319 -0.31237
-2.94023 -2.47675 -0.674772
-3.14499 -2.03044 -0.633684
-3.22209 -2.2775 -0.848951
-3.16321 -2.26404 -0.386669
-3.03914 -4.25341 0.579285
-2.64287 -3.80807 0.20828
-2.47531 -4.18593 0.714333
-2.97264 -3.41482 0.618231
-2.84101 -4.03074 0.393783
-2.75723 -4.21967 0.646809
-3.00589 -3.83412 0.598758
-2.55909 -3.997 0.461307
-2.80776 -3.61144 0.413255
-2.72397 -3.80037 0.666282
-2.39684 -0.595487 -0.803365
-1.98884 -0.54749 -0.836812
-2.24172 -0.466498 -0.098067
-2.21295 -0.01831 -0.514797
-2.19284 -0.571489 -0.820088
-2.31928 -0.530992 -0.450716
-2.3049 -0.306899 -0.659081
-2.11528 -0.506994 -0.46744
-2.1009 -0.2829 -0.675804
-2.22734 -0.242404 -0.306432
-3.36239 -4.55484 -1.31864
-3.11171 -4.25429 -0.873787
-2.86199 -4.55394 -1.36046
-2.79118 -5 -0.96439
-3.23705 -4.40456 -1.09621
-3.11219 -4.55439 -1.33955
-3.07678 -4.77742 -1.14151
-2.98685 -4.40411 -1.11712
-2.95144 -4.62714 -0.919088
-2.82658 -4.77697 -1.16243
-3.88203 2.65205 -0.416886
-3.48121 2.84727 -0.340672
-3.82273 3 -0.474998
-3.72541 2.76868 -0.627028
-3.68162 2.74966 -0.378779
-3.85238 2.82603 -0.445942
-3.80372 2.71037 -0.521957
-3.65197 2.92364 -0.407835
-3.60331 2.80798 -0.48385
-3.77407 2.88434 -0.551013
[...]
POINT_DATA 7451
 
FIELD FieldData 2
velocity 3 7451 double
-0.122243 -0.347674 0.00946202
1.53815e-030 3.47324e-030 -1.9036e-031
4.46631e-031 1.21884e-030 -5.62409e-032
1.28606e-030 3.45536e-030 -1.7396e-031
-0.0832547 -0.203322 0.0113173
-0.0725542 -0.199759 0.00917096
-0.080145 -0.231869 0.0121574
-1.87223e-018 -4.5328e-018 3.11565e-019
5.65545e-018 1.40647e-017 -1.09152e-018
1.88238e-029 -8.07767e-030 -4.38947e-030
8.90864e-030 2.97239e-030 -2.00649e-031
-0.410667 -0.109307 0.00104148
-0.626248 -0.142596 0.0073869
-0.705861 -0.230746 0.0060371
-0.226962 -0.0769666 0.0070135
-0.306201 -0.093197 0.00982315
-0.405201 -0.146949 0.00931546
-0.534689 -0.134344 0.00694569
-0.592223 -0.174633 0.00527216
-0.675617 -0.192657 0.00833644
9.56179e-029 -2.94137e-031 2.75949e-032
-0.847018 0.00730245 -0.000622418
-1.10428 3.63223e-005 -0.000593609
5.52196e-029 -2.21945e-031 5.29664e-032
-0.551798 0.00341765 6.83806e-005
-0.835321 -4.36647e-006 -0.00253094
-1.34324e-016 2.48276e-019 -3.16039e-019
-1.00713 0.00127438 -7.2439e-005
-0.479202 0.00633707 -0.000804271
-0.741799 0.00191704 -0.000177453
3.25398e-029 3.36671e-030 5.89493e-032
2.14252e-029 1.37033e-030 2.80235e-031
-0.700077 -0.104657 -0.0137724
-0.884531 -0.0620811 -0.00508724
-1.05746e-016 -6.69034e-018 -1.03964e-018
-0.422745 -0.0482972 -0.00394124
-0.526247 -0.0335962 -0.00351121
-0.40353 -0.0313839 -0.0076271
-0.505409 -0.0232853 -0.00493909
-0.797936 -0.0856543 -0.00850553
-4.25681e-030 -6.51572e-029 1.72372e-030
0.0265528 0.432223 0.00366455
-4.64241e-030 -7.71054e-029 2.2314e-030
-8.16636e-031 -9.71746e-030 -5.41504e-033
0.0239737 0.293774 -0.00307106
-6.41634e-017 -7.20736e-016 1.67545e-017
-4.04826e-018 -4.09631e-017 5.16638e-019
0.027172 0.347717 -0.00498518
0.0223116 0.256345 0.000690745
-5.82244e-017 -6.23857e-016 9.85227e-018
-0.830661 -0.0163057 -0.0024063
-1.003 -0.00962323 -0.00220122
-0.903166 -0.0129492 -0.000937659
-1.01029 -0.0026306 -0.000993296
-1.13166 -0.0172776 -0.00316458
-0.984752 -0.0171701 -0.0023011
-1.11557 -0.00467782 -0.00383029
-1.16957 -0.00251876 -0.000487661
-1.26943 -0.0169868 -0.00155514
-0.563464 -0.186376 0.00461889
-0.570132 -0.102055 -0.0202882
1.85211e-029 5.08202e-030 1.96265e-031
-0.623499 -0.165238 -0.00819701
-0.688848 -0.154245 -0.00386432
-0.30953 -0.108998 0.00318677
-0.634853 -0.111901 -0.0189278
-0.342091 -0.0933502 -0.0102784
-0.39 -0.0842404 -0.00828118
-0.429274 -0.452502 -0.021694
-0.465509 -0.263235 -0.0478033
-0.604826 -0.33463 -0.0137505
-0.238852 -0.30023 -5.11358e-005
-0.464125 -0.383353 -0.0376522
-0.518662 -0.396024 -0.0190643
-0.392913 -0.415776 -0.0148303
-0.552788 -0.307761 -0.0306443
-0.385864 -0.326697 -0.022685
-0.422143 -0.333722 -0.00654031
-1.69513e-029 -6.2392e-030 1.06173e-030
0.348125 0.0511845 -0.00585255
-2.03873e-029 -5.97115e-030 -3.79263e-031
-4.31047e-030 -2.12126e-031 1.72386e-032
0.187687 0.0286087 -0.0054757
6.01736e-017 4.77217e-018 2.36858e-018
3.21323e-018 2.06763e-019 -1.92907e-020
0.212858 0.0164525 -0.0011121
0.198668 0.010644 0.00127492
-6.9121e-017 -4.37836e-019 -8.99176e-019
2.49748e-017 1.16203e-017 -7.05989e-019
2.72838e-030 1.24505e-030 -5.31249e-032
-0.508214 -0.210091 0.00888476
2.91467e-030 1.19255e-030 -5.52036e-032
1.24918e-017 6.26655e-018 -3.94331e-019
-0.286406 -0.126666 0.00672577
9.82832e-017 4.4192e-017 -3.61601e-018
-0.286517 -0.138315 0.00778077
1.52264e-016 7.80307e-017 -3.45936e-018
-0.316015 -0.134995 0.00585914
-0.0331618 -0.23662 -0.0133793
-0.0203777 -0.251602 -0.00872951
-0.0125769 -0.235986 -0.00683747
-0.0521655 -0.498721 -0.0148755
-0.0289304 -0.266997 -0.0110487
-0.0231248 -0.237407 -0.0102774
-0.0454886 -0.378526 -0.0160206
-0.0187349 -0.269511 -0.00932747
-0.0380747 -0.395456 -0.0121976
-0.0320395 -0.382951 -0.0114783
0.0114281 0.271845 0.00837995
-6.49494e-031 -2.0569e-029 -1.03573e-030
-3.25256e-031 -1.57049e-029 -8.88167e-031
-0.0017476 0.226557 0.012884
0.00643076 0.144538 0.00803614
0.00559701 0.141771 0.00805077
0.00482134 0.27733 0.0118572
2.18854e-029 2.08564e-030 6.35557e-029
0.00231045 0.134894 0.0091212
0.00115892 0.11616 0.00824788
9.52202e-031 3.51246e-030 -9.84292e-032
-0.0905759 -0.371557 0.00390387
-0.048478 -0.229765 0.00496617
-0.0580606 -0.233498 0.00626053
-0.0602966 -0.194298 0.00614127
-0.0276292 -0.117357 0.00338954
-0.110298 -0.372276 0.00580391
-0.0760541 -0.330053 0.00567019
-0.0823426 -0.287362 0.00753246
-2.61619e-031 -4.60657e-030 -2.24065e-031
-3.65472e-018 -6.86693e-017 -5.0484e-018
3.55742e-018 6.14067e-017 4.4226e-018
0.00772677 0.137132 0.00665081
1.01526e-029 1.73458e-031 2.44943e-033
1.34508e-029 2.2467e-031 1.60695e-032
1.75473e-029 1.87012e-031 4.33256e-032
6.95158e-017 1.53857e-018 8.62421e-020
-0.520331 -0.0128046 -0.000520584
-4.89816e-030 -4.45381e-029 -2.24972e-029
-0.510829 -0.00649753 -0.000667274
8.08688e-017 -1.84512e-019 1.72639e-019
-0.519832 -0.00585976 -0.00103777
-1.48104e-028 3.74249e-031 -7.08627e-032
0.48487 0.00056453 0.000716822
-5.47717e-029 3.84231e-032 -1.28737e-031
0.472389 -0.00218489 0.00130178
0.415804 -0.00127023 0.000283497
-6.6711e-017 3.6526e-020 -3.0335e-019
0.375291 -0.00022726 0.00135382
0.393413 0.000695203 0.000858829
0.534962 -0.00104905 0.00162805
0.396793 -0.0011586 0.00173388
-0.0802767 -0.329302 -0.0282661
-0.118442 -0.341423 -0.0334314
-0.170523 -0.53489 -0.025639
-0.0907174 -0.409321 -0.0209222
-0.106879 -0.362566 -0.0338271
-0.134484 -0.48243 -0.0330341
-0.0936423 -0.399944 -0.0289776
-0.178081 -0.517607 -0.0369391
-0.108077 -0.382645 -0.027656
-0.151808 -0.550707 -0.0305789
3.07123e-030 4.06264e-031 -6.7583e-032
-0.668411 -0.123562 0.00999242
6.64148e-030 5.32798e-031 -1.16874e-031
2.94757e-029 1.96876e-030 -1.51341e-031
-0.376735 -0.0499424 0.0102981
-9.79357e-017 -7.78024e-018 3.42116e-018
1.36261e-016 6.21989e-018 -3.96723e-018
-0.364341 -0.0441611 0.00891123
-0.380244 -0.0311367 0.00700717
-2.22188e-017 -7.11537e-019 7.78865e-019
-0.403203 -0.101967 -0.0145207
-0.685793 -0.2333 -0.011416
-0.727928 -0.113096 -0.00674976
-0.408561 -0.118116 -0.00511598
-0.566252 -0.170171 -0.0140598
-0.582085 -0.118536 -0.011452
-0.410466 -0.114318 -0.00959034
-0.742344 -0.174996 -0.0115298
-0.577956 -0.181764 -0.00662377
-0.592975 -0.127631 -0.00634472
-0.626883 -0.0136219 0.00190009
3.30414e-030 3.91061e-032 -6.70875e-033
2.94239e-029 3.60735e-031 -1.507e-031
1.3549e-029 1.83558e-031 -2.73554e-032
-0.337938 -0.00338912 0.0012846
-0.335468 -0.00631615 0.00282607
-0.366005 -0.00427034 0.00202039
-2.39785e-016 -1.92802e-018 2.1054e-018
-1.15592e-016 -2.51173e-019 1.04581e-018
-1.08845e-029 -2.11341e-029 4.74424e-029
-0.0586638 -0.397281 0.00543224
-0.055671 -0.320873 0.00562302
-0.0865027 -0.369533 0.00668577
-0.0792827 -0.413642 0.00420153
-0.740256 -0.151182 -0.0428683
-0.407992 -0.0410401 -0.0197159
-0.603064 -0.202633 -0.0480179
-0.462861 -0.14487 -0.0381451
-0.693627 -0.261478 -0.0302575
-0.61358 -0.0960733 -0.0357212
-0.546028 -0.208981 -0.0213521
-0.811152 -0.0103923 0.000549236
-3.66825e-017 4.28444e-020 8.26194e-020
-0.811602 -0.00915937 0.00347243
-0.507268 -0.00737806 0.00300329
-2.46495e-029 -3.01916e-029 5.95486e-029
-0.507371 -0.00584405 0.00454742
-0.460896 -0.00799024 0.00171822
-0.942143 -0.0127128 0.00303861
-0.59087 -0.00289093 0.00302442
5.33975e-030 9.38785e-032 -7.98103e-033
-0.34253 -0.00647154 0.00201312
-7.73393e-017 -2.65421e-018 1.72713e-018
-1.02143e-016 -8.48734e-019 6.53354e-019
-1.11318 -0.0514171 0.00280417
-1.24709 -0.0418003 -0.00319257
-1.0599 -0.0267168 0.000670408
-0.978694 -0.0225108 0.00343655
-1.24516 -0.0507259 0.000187412
-1.13826 -0.0263826 -0.00144188
-1.18656 -0.0274909 0.00144252
1.98406e-017 -1.55385e-019 -3.14357e-019
-4.83234e-029 4.64749e-031 4.72681e-031
-1.7919e-029 5.4062e-032 9.39519e-032
0.476022 -0.00457585 -0.000879514
-3.05228e-017 2.84254e-019 4.44746e-019
1.33134e-029 -3.19988e-029 9.67268e-029
0.290866 -0.00295675 -0.00292817
-3.14547e-017 1.04652e-019 3.21619e-019
0.32547 -0.00364674 -0.00233321
0.293949 8.98495e-005 -0.00200638
7.68674e-032 -7.12881e-030 -5.55476e-031
-3.23759e-031 -2.20126e-029 -1.32011e-030
-6.34265e-033 -2.63152e-030 -1.97498e-031
-0.00127876 0.118379 0.00922356
0.00201574 0.125326 0.00996665
4.98247e-005 0.114287 0.00806092
-7.41489e-019 -5.7921e-017 -5.66134e-018
-7.88562e-020 2.65094e-017 2.40751e-018
-1.30534e-018 -5.61041e-017 -5.14502e-018
0.021831 0.715504 -0.00563702
-0.0256465 0.518758 -0.000393411
-0.0279482 0.716669 -0.0340872
-0.0282169 0.666638 -0.0166485
-0.00734981 0.759473 -0.00248401
-0.00385532 0.912358 -0.0229069
-0.00659252 0.863386 -0.0134562
-0.0281896 0.673281 -0.0139535
-0.0270962 0.593915 -0.00595572
-0.0295289 0.721872 -0.0267642
0.366442 0.160859 0.0235758
-2.62087e-029 -1.65221e-030 -1.66977e-031
0.455726 0.0149966 -0.00244886
0.408131 0.104562 -4.71165e-005
0.246159 0.00705879 -0.000839934
0.422055 0.0327597 -0.00173493
0.195551 0.00498344 0.00866546
0.412231 0.0521389 -0.0015571
0.268208 0.00078625 -0.00319743
-1.96671e-018 -2.71052e-017 -1.18392e-018
1.0915e-031 1.2399e-030 5.94544e-032
-0.00757286 -0.120032 -0.00437532
-0.00809714 -0.115113 -0.00390424
-4.16625e-018 -5.20258e-017 -2.15864e-018
-0.0165947 -0.129611 -0.00731704
-0.0152802 -0.121855 -0.00773912
-7.42309e-018 -3.0033e-017 1.12024e-018
2.8024e-031 1.78039e-030 -3.76512e-032
-0.0311754 -0.133283 0.00421702
1.24851e-017 6.63381e-017 -1.61376e-018
2.02286e-029 -6.65716e-030 -1.20027e-031
-0.0211777 -0.130979 0.00189994
2.18206e-017 1.1853e-016 -2.49257e-018
-0.183688 -0.295154 0.00790758
1.45758e-030 2.03864e-030 -1.11707e-031
6.8704e-031 1.10344e-030 -5.51853e-032
5.15678e-031 8.97388e-031 -4.63765e-032
-0.112793 -0.169933 0.00941611
-0.103067 -0.164883 0.00828564
-0.0999891 -0.169703 0.00858161
-5.14088e-017 -7.7617e-017 5.699e-018
-2.86054e-016 -4.54276e-016 3.74206e-017
-1.97553e-016 -3.32195e-016 2.29389e-017
-1.29599e-031 -3.83192e-030 1.56828e-031
-1.97812e-031 -1.10574e-029 5.03373e-031
-6.19535e-031 -1.91032e-029 1.0134e-030
0.00999258 0.395784 -0.0127451
-3.49455e-018 -1.53553e-016 7.10493e-018
-5.72172e-019 -1.75498e-017 8.97906e-019
0.00644426 0.233618 -0.00842742
8.74054e-019 3.30797e-017 -6.57724e-018
0.00587584 0.286088 -0.0128355
0.00886454 0.280582 -0.0141285
-5.58316e-029 -5.14334e-032 1.26143e-030
-5.86438e-029 3.76853e-031 6.35836e-031
0.479591 -0.0115818 4.4978e-005
2.52558e-017 3.26981e-020 -6.42825e-019
-2.74738e-017 1.58739e-019 6.25511e-019
0.38341 -0.00320602 -0.00831949
-6.24571e-017 5.42837e-019 6.18086e-019
0.419802 -0.00185545 -0.00599839
0.369887 -0.00555181 -0.00334919
6.01279e-020 8.94445e-019 4.21267e-020
0.00725881 0.401403 0.0161772
-2.17473e-030 -6.02043e-029 -2.08339e-030
0.00833452 0.218839 0.010348
-4.35814e-018 -7.14425e-017 -9.14179e-018
0.0198071 0.392332 0.00864415
0.00762407 0.186715 0.0121818
0.0149681 0.586752 0.00848205
0.0159481 0.38149 0.013672
0.0199715 -0.0547486 -0.0495195
0.0190855 -0.0105155 -0.033789
-0.128669 -0.208767 -0.0353883
-0.135234 -0.100431 -0.0469834
0.0177922 -0.0428209 -0.046446
-0.0619917 -0.158391 -0.045995
-0.06274 -0.100902 -0.0554059
-0.0454927 -0.0929414 -0.032018
-0.0513541 -0.053298 -0.0408561
-0.126139 -0.158132 -0.0417376
-0.00171576 0.365095 0.016885
0.00694848 0.411669 0.0170064
0.00727677 0.225003 0.0134542
0.0091769 0.57959 0.0109697
0.000702342 0.662317 -0.0266786
-0.0161504 0.680652 -0.0139826
-0.0172515 0.52375 -0.0292544
-0.000719291 0.73233 -0.0400082
-0.00831839 0.721958 -0.0204305
-0.00974706 0.646005 -0.0303141
0.000358083 0.698003 -0.0339217
-0.0188997 0.646903 -0.0222731
-0.0104204 0.753144 -0.0243672
-0.0128603 0.659746 -0.0356447
1.7795e-017 5.36555e-017 3.71991e-018
5.68434e-017 1.41934e-018 1.17934e-019
0.401255 0.443249 -0.0208661
0.301385 0.107074 -0.0259595
1.36864e-029 3.69735e-029 4.18126e-029
0.26541 0.293493 -0.0148936
0.201237 0.111854 -0.0180218
0.299105 0.168044 -0.0169448
0.231198 0.0571208 -0.0124431
0.384385 0.251428 -0.0290365
8.01869e-019 2.07243e-017 1.62854e-018
0.00201171 0.207916 0.00826733
1.91043e-031 -1.33104e-029 -5.01304e-031
-0.00168932 0.155448 0.00282817
0.00230858 0.0986459 0.00573398
1.31212e-018 3.24073e-017 4.31588e-018
0.000596651 0.0885225 0.00332381
-2.13171e-005 0.0983672 0.00533239
-0.000650364 0.185547 0.00485855
-0.00104546 0.0774563 0.00286577
6.24346e-031 3.37788e-030 -7.0533e-032
-0.0413951 -0.32194 0.00202772
5.82103e-031 1.08382e-029 -1.06278e-031
9.96208e-031 4.93487e-030 -8.81754e-032
-0.0278166 -0.189995 0.0036887
-2.8567e-017 -2.42486e-016 5.50531e-018
2.25007e-029 -4.89299e-030 1.56879e-029
-0.0179468 -0.183742 0.00215572
-0.0257805 -0.176198 0.001772
-2.28598e-017 -1.97502e-016 2.89238e-018
0.515841 -0.000290753 -0.000171535
-2.04273e-029 2.54578e-032 -4.82744e-033
-2.12384e-029 1.37464e-032 4.02015e-033
-3.61759e-029 4.99573e-032 6.2587e-033
0.347007 0.00013868 -7.97202e-005
0.348615 -0.000136428 -0.000227555
0.346553 -0.000299564 6.226e-005
1.43135e-029 -6.55605e-020 -1.05975e-029
1.29789e-029 2.73334e-021 -1.20401e-020
2.53593e-017 6.76312e-029 -1.39643e-030
0.200952 0.750046 -0.0448161
-0.0115148 0.801156 -0.0279733
-0.0172912 0.92238 -0.0853004
0.0359084 0.718278 -0.00480783
0.0915913 0.905057 -0.0514177
0.0684246 0.878863 -0.0738421
0.13627 0.846855 -0.0385159
-0.0179296 0.984213 -0.0640914
0.0521943 0.820675 -0.0187485
0.0431074 0.987633 -0.0552324
-7.65254e-029 1.09776e-031 2.42033e-032
-4.50643e-029 8.79169e-032 9.19596e-032
-5.59506e-029 4.47758e-031 -4.80199e-032
0.471982 -0.00387401 9.28385e-005
1.97041e-017 -7.47834e-023 -9.97696e-020
1.96387e-017 -4.35129e-022 -4.90313e-022
0.372686 4.78744e-005 -0.0012898
9.06874e-019 -2.51935e-022 -7.80145e-022
0.332774 0.000499679 -0.00104089
0.37871 -0.00256878 0.000678265
8.28133e-030 4.82263e-030 -2.51398e-031
-0.393644 -0.239358 0.0121226
2.82045e-030 1.67456e-030 -1.06675e-031
-0.268158 -0.172009 0.0102145
-0.260294 -0.139283 0.00810798
5.73153e-016 3.86551e-016 -2.92763e-017
-0.45111 -0.227966 0.0104089
-0.237183 -0.155744 0.0116057
-0.249958 -0.137516 0.00821687
-0.839243 0.000914672 0.00600776
1.81043e-028 -2.3245e-031 -2.6514e-031
1.34589e-029 -8.73621e-032 -1.68129e-031
-0.838155 0.00517072 0.00296559
-0.555541 0.00274789 0.0028015
-0.5004 -0.000386296 0.0063567
-0.927807 0.00407609 0.00360232
-2.32573e-029 3.30419e-029 6.14822e-029
-0.4725 0.00436805 0.00195397
-0.504945 0.0064418 0.00355667
-3.64497e-029 3.36538e-031 2.09702e-031
-1.33556e-029 2.03311e-031 1.59831e-031
-2.06362e-029 -8.81039e-031 3.38594e-032
-4.55287e-017 2.01454e-018 3.52158e-019
-1.17811e-018 1.83974e-020 3.70016e-020
0.297174 -0.00230861 -0.0015561
-1.61645e-017 4.2121e-019 5.804e-019
0.274412 -0.00540211 -0.00232698
0.283756 0.00429337 -0.0107574
-7.99335e-029 1.31675e-030 -2.91941e-031
0.380834 -0.0063692 0.000641879
0.318637 -0.0097836 0.00211805
0.345235 -0.00696818 0.000809694
0.52974 -0.00823382 9.48127e-006
0.547434 -0.00555908 -0.000126331
0.482122 -0.0104698 -0.000523688
-1.74794e-029 -1.76364e-031 2.38957e-032
-3.28175e-029 4.2748e-031 -2.05845e-032
5.36425e-017 -2.62206e-018 -3.04102e-019
4.68987e-017 -1.99176e-018 -4.38324e-019
0.278542 -0.00299018 -0.000740405
4.2019e-018 -2.11115e-019 -4.93617e-020
0.286288 -0.00382233 -0.00280745
-6.12011e-029 2.56371e-031 2.504e-031
0.471617 0.00158775 -0.000696607
-4.07128e-029 1.4409e-031 1.06062e-031
0.288889 -0.00153811 -0.000823901
-9.73465e-017 1.60323e-019 7.01851e-019
0.369743 -0.00305626 -0.00188948
0.300523 -0.000102508 -0.000784386
0.4944 -0.00158464 -0.000798393
0.317494 0.000603541 -0.00218946
-1.63706e-029 1.2358e-031 -1.32056e-031
-4.82208e-029 7.89828e-033 -3.15325e-031
-5.61551e-029 3.06634e-031 -2.71434e-031
3.33238e-017 -5.27067e-019 8.30061e-019
-3.58535e-017 6.07641e-019 -7.95441e-019
0.292016 -0.00385191 0.00573698
-2.34198e-017 3.2601e-019 -3.85284e-019
0.303674 -0.00292651 0.00386857
0.303433 -0.00332915 0.00288429
1.39129e-030 -8.06663e-030 4.42814e-031
-0.180082 0.116759 -0.0216084
1.91985e-030 -3.69186e-030 5.66154e-031
0.0746915 0.216721 -0.028994
-0.0599377 0.085475 -0.00564332
-1.35989e-017 -6.13074e-018 2.45171e-019
0.0086517 0.13735 -0.0069501
-0.0680154 0.0433613 -0.00509709
-0.0685745 0.180067 -0.0235019
-0.00400876 0.0769315 -0.00783669
-6.60573e-030 -3.61121e-030 -7.94928e-031
-5.3152e-029 -7.34198e-030 -1.03532e-030
-9.03113e-030 -1.96128e-029 2.69005e-031
0.20531 0.0443499 0.0347494
0.243366 0.0874502 0.0208704
0.256281 0.197329 0.0501949
2.79863e-030 5.18011e-029 -3.20517e-029
5.61287e-017 5.27653e-017 1.25335e-017
-6.97661e-017 -4.50555e-017 -1.30696e-017
-2.14317e-029 -1.55307e-031 4.31832e-032
-1.34916e-017 -2.0086e-029 -6.8293e-029
5.21707e-017 -1.69782e-018 -1.60095e-020
0.308908 -0.000633694 0.00148841
-0.0936247 -0.265029 0.00271972
1.59766e-030 3.24127e-030 -5.25319e-032
-0.152435 -0.26384 -0.00469108
3.55535e-030 7.98919e-030 4.86823e-032
-0.0600372 -0.137725 0.00368418
-0.127059 -0.2731 -0.000825524
-0.0604752 -0.145741 0.00229545
-0.0838636 -0.152197 0.00167006
9.9218e-018 1.95751e-017 -4.79524e-019
-0.0733142 -0.139454 -0.000102753
-0.287294 -0.324929 -0.0316338
-0.267836 -0.485613 -0.0333963
-0.118519 -0.184042 -0.0160646
-0.221027 -0.281208 -0.0386852
-0.286098 -0.415765 -0.033485
-0.197586 -0.272888 -0.0257762
-0.224196 -0.36744 -0.0412888
-0.133466 -0.206565 -0.0227615
-0.21213 -0.363559 -0.0304995
0.469898 0.00159952 8.64737e-005
-9.63233e-029 -2.61611e-031 3.46413e-031
-3.95028e-029 -1.85031e-031 5.2826e-032
0.482984 0.0021017 -0.000743044
0.306734 0.0024377 -0.000888676
0.289907 0.00240714 0.000644795
0.489964 0.00258026 -0.00106037
4.20987e-029 -8.3303e-030 -1.04643e-028
0.401184 -0.00145512 -0.00158359
0.352885 -0.000378181 -0.000336406
-1.73047e-029 2.57467e-032 1.61932e-032
-4.58492e-029 1.45718e-032 -7.34479e-033
-8.55886e-029 4.47469e-032 4.87076e-032
1.31591e-029 4.72426e-029 8.32515e-029
0.294402 -0.000467003 -0.000210564
6.39727e-017 3.16936e-019 -3.15259e-020
0.322655 0.000650422 0.000451541
-3.02751e-017 -9.93304e-020 2.83493e-020
0.29447 -8.2672e-005 -0.000402098
-2.59187e-029 4.66667e-032 -3.03213e-032
-5.0261e-029 5.39951e-032 -1.0772e-031
0.511619 -0.000580368 0.000259535
-8.68334e-029 1.17919e-031 -2.09836e-031
8.37863e-017 -2.06468e-019 4.13577e-019
0.38651 -0.000876917 0.000766673
-6.60957e-017 3.7024e-019 -1.67601e-019
0.397211 -0.000714159 0.00196892
3.13859e-017 5.70566e-020 2.07414e-019
0.376848 -0.00225634 0.000650105
0.468971 0.00115716 -0.000622459
-9.6117e-029 3.88463e-032 9.85624e-032
0.538441 0.000100858 -6.8574e-005
0.343968 0.000254155 -0.000354416
0.471974 0.00199604 0.000425252
0.375963 -0.00154083 0.00111056
0.545017 0.00197102 -0.000943041
0.382609 0.000804132 -0.00034317
1.27863e-029 1.23607e-031 -9.96063e-032
-0.347019 -0.00532089 0.00472291
8.40199e-017 9.16907e-019 -3.26652e-018
-0.462023 -0.00488611 0.00483753
-0.753565 -0.0107352 0.00452782
1.23728e-030 -5.56365e-029 3.46201e-030
1.50047e-031 -1.02507e-028 6.21078e-030
-0.00973006 0.63948 -0.0387277
2.10966e-005 0.644699 -0.039479
-0.0120692 0.444916 -0.0287675
1.36439e-018 -8.5561e-017 5.67885e-018
-0.00790386 0.528552 -0.0330896
0.00064976 0.551811 -0.00112481
0.0122505 0.284058 0.00259751
0.00431941 0.561802 -0.00675482
0.000161576 0.365546 0.000701483
0.0093191 0.445433 0.00149427
0.00345847 0.560157 -0.00410485
0.000373012 0.461969 0.000709217
0.00858054 0.441158 -0.00159757
0.00529945 0.352433 0.00174006
0.00197239 0.482495 -0.00190586
0.00736282 0.269046 0.00638828
0.00185277 0.385185 0.00590014
0.000958311 0.287797 0.00371305
8.38781e-029 1.55794e-030 6.61023e-031
1.40985e-028 2.84729e-030 9.67255e-031
2.51926e-029 2.94115e-031 1.20319e-031
-0.630036 -0.0080932 -0.00362527
-0.594071 -0.00892051 -0.00585684
-0.593803 -0.01002 -0.0035468
-1.35743e-016 3.38124e-019 -1.86697e-018
-1.60391e-016 -2.95354e-018 -1.34813e-018
-1.52406e-016 -3.13725e-018 -1.84364e-018
7.23322e-031 2.71907e-030 -6.04458e-032
-0.163104 -0.484077 -0.0035995
4.044e-030 2.00018e-029 1.18704e-031
1.52063e-030 7.40511e-030 -1.33944e-031
-0.0941668 -0.351967 0.00655071
4.44491e-030 -4.13506e-030 -2.68298e-029
-4.24485e-017 -2.06685e-016 7.25023e-018