# vtk DataFile Version 2.0 
output.vtk, Created by Freefem++, via gregorio
ASCII
DATASET UNSTRUCTURED_GRID
POINTS 7451 double
-3.79965 2.23652 0.040848
-4.13429 2.05574 0.276253
-4.09122 2.24524 0.070091
-4.01836 2.27766 0.330071
-3.96697 2.14613 0.158551
-3.94543 2.24088 0.0554695
-3.90901 2.25709 0.185459
-4.11275 2.15049 0.173172
-4.07633 2.1667 0.303162
-4.05479 2.26145 0.200081
-4.81817 0.732763 -0.840268
-4.76136 0.37264 -0.736193
-5.12328 0.495929 -0.550642
-4.73872 0.559667 -0.434419
-4.78977 0.552702 -0.788231
-4.97072 0.614346 -0.695455
-4.77845 0.646215 -0.637344
-4.94232 0.434285 -0.643417
-4.75004 0.466153 -0.585306
-4.931 0.527798 -0.49253
-7.58244 -0.891248 -0.453516
-8 -0.559587 0.124298
-7.26059 -0.264226 0.250847
-7.58828 -0.999993 0.00381
-7.79122 -0.725418 -0.164609
-7.42152 -0.577737 -0.101334
-7.58536 -0.94562 -0.224853
-7.6303 -0.411906 0.187573
-7.79414 -0.77979 0.064054
-7.42444 -0.632109 0.127328
-5.46564 0.048234 0.998836
-5.51396 -0.351144 0.936321
-5.02851 -0.125769 0.598961
-5.56665 -0.148801 0.504295
-5.4898 -0.151455 0.967578
-5.24708 -0.0387675 0.798898
-5.51614 -0.0502835 0.751565
-5.27124 -0.238457 0.767641
-5.5403 -0.249972 0.720308
-5.29758 -0.137285 0.551628
-4.20269 -2.80441 0.102764
-3.63085 -2.57461 -0.287529
-4.13183 -2.29387 0.255347
-4.14432 -2.47254 -0.273935
-3.91677 -2.68951 -0.0923825
-4.16726 -2.54914 0.179055
-4.1735 -2.63848 -0.0855855
-3.88134 -2.43424 -0.016091
-3.88759 -2.52358 -0.280732
-4.13807 -2.38321 -0.009294
-6.25062 -0.085247 0.575431
-6.51584 -0.423084 -0.15939
-6.46019 0.447486 0.293263
-6.75561 -0.174737 0.413139
-6.38323 -0.254165 0.20802
-6.35541 0.181119 0.434347
-6.88822 -0.343655 0.0457285
-6.86039 0.09163 0.272055
-6.48801 0.012201 0.0669365
-4.88162 0.371746 0.655425
-4.51246 -0.112716 0.623981
-4.65723 0.09269 0.995695
-4.69704 0.129515 0.639703
-4.95507 0.122989 0.627193
-4.76942 0.232218 0.82556
-4.77049 -0.119243 0.611471
-4.58484 -0.010013 0.809838
-4.84287 -0.0165395 0.797328
-3.75099 1.20677 0.090288
-3.64118 0.745776 0.266863
-4.09568 0.790235 0.315934
-3.78936 1.07086 0.69071
-3.69609 0.976272 0.178575
-3.92333 0.998502 0.203111
-3.77017 1.13882 0.390499
-3.86843 0.768006 0.291399
-3.71527 0.908319 0.478787
-3.94252 0.930549 0.503322
-2.18572 0.40145 0.915881
-1.75478 0.245881 0.526965
-1.94554 -0.013967 0.999902
-1.76886 0.356252 0.93439
-1.97025 0.323665 0.721423
-2.06563 0.193741 0.957891
-1.97729 0.378851 0.925135
-1.85016 0.115957 0.763433
-1.76182 0.301067 0.730678
-1.8572 0.171143 0.967146
-5.06116 0.824959 0.710182
-4.88551 0.773989 0.80113
-4.92155 0.772883 0.437198
-5.01596 0.602336 0.857802
-4.97333 0.799474 0.755656
-4.99135 0.798921 0.57369
-5.03856 0.713647 0.783992
-4.90353 0.773436 0.619164
-4.95074 0.688163 0.829466
-4.96876 0.687609 0.6475
-2.34262 2.51752 0.051733
-2.4672 2.85727 -0.311185
-2.29554 2.81673 0.086134
-2.65762 2.74748 0.16058
-2.40491 2.6874 -0.129726
-2.31908 2.66712 0.0689335
-2.50012 2.6325 0.106157
-2.38137 2.837 -0.112526
-2.56241 2.80238 -0.0753025
-2.47658 2.7821 0.123357
-3.50303 -3.76846 -0.636668
-3.49422 -3.29308 -1.15018
-3.31427 -3.71149 -1.25136
-2.90724 -3.34218 -0.858121
-3.49863 -3.53077 -0.893424
-3.40865 -3.73997 -0.944014
-3.20514 -3.55532 -0.747394
-3.40425 -3.50228 -1.20077
-3.20073 -3.31763 -1.00415
-3.11076 -3.52683 -1.05474
-4.0054 2.49156 -0.125899
-3.5956 2.50054 -0.194198
-3.83412 2.54803 0.0159
-3.8005 2.49605 -0.160049
-3.90253 2.36404 -0.0425255
-3.91976 2.5198 -0.0549995
-3.69763 2.36853 -0.076675
-3.71486 2.52428 -0.089149
-3.81689 2.39228 0.028374
-3.73452 -3.68531 -1.05781
-3.52439 -3.6984 -1.15459
-3.61437 -3.4892 -1.104
-3.61877 -3.72688 -0.84724
-6.37864 0.944563 0.328331
-6.25891 0.813305 0.581838
-6.65332 0.772267 0.635298
-6.31878 0.878934 0.455085
-6.41941 0.696025 0.310797
-6.51598 0.858415 0.481815
-6.35955 0.630395 0.43755
-6.45612 0.792786 0.608568
-6.55675 0.609877 0.46428
1.62066 -0.841518 -0.540229
1.89324 0.238579 -0.195511
2.01627 -0.690819 -0.723027
2.25185 -0.211859 0.261412
1.75695 -0.30147 -0.36787
1.81846 -0.766169 -0.631628
1.93625 -0.526689 -0.139408
1.95475 -0.22612 -0.459269
2.07254 0.01336 0.0329505
2.13406 -0.451339 -0.230807
-2.56949 2.06853 0.305158
-2.91403 1.60744 0.564909
-3.02709 2.08175 0.021586
-2.87501 2.07662 0.630995
-2.74176 1.83799 0.435033
-2.79829 2.07514 0.163372
-2.72225 2.07258 0.468077
-2.97056 1.8446 0.293247
-2.89452 1.84203 0.597952
-2.95105 2.07919 0.32629
-5.39985 0.358755 0.933432
-5.34934 0.453264 0.543553
-5.56264 0.558471 0.829524
-5.70805 0.297641 0.954678
-5.37459 0.40601 0.738492
-5.48124 0.458613 0.881478
-5.55395 0.328198 0.944055
-5.45599 0.505868 0.686538
-5.52869 0.375452 0.749116
-5.63535 0.428056 0.892101
-4.17913 0.323834 -0.696515
-4.36183 0.516245 -0.417662
-4.60784 0.019305 -0.528365
-4.46586 0.364911 -0.72315
-4.27048 0.42004 -0.557088
-4.39349 0.17157 -0.61244
-4.3225 0.344372 -0.709832
-4.48483 0.267775 -0.473013
-4.41384 0.440578 -0.570406
-4.53685 0.192108 -0.625757
-5.9377 0.438799 -0.558905
-5.87927 0.529091 -0.848565
-6.25926 0.555743 -0.831354
-6.07929 0.245277 -0.969453
-5.90849 0.483945 -0.703735
-6.09848 0.497271 -0.695129
-6.00849 0.342038 -0.764179
-6.06927 0.542417 -0.839959
-5.97928 0.387184 -0.909009
-6.16928 0.40051 -0.900404
-3.64743 2.72944 0.180305
-3.74077 2.63873 0.0981025
-3.72354 2.48298 0.110576
-3.62151 2.61499 -0.0069465
-3.98168 0.388062 0.141859
-3.76543 0.320245 0.603448
-3.81143 0.566919 0.204361
-3.70331 0.533011 0.435156
-4.03868 0.589149 0.228897
-3.87356 0.354154 0.372653
-3.93055 0.55524 0.459691
-6.17342 0.027823 -0.593282
-6.59748 0.255766 -0.966739
-6.35964 0.547779 -0.240473
-6.21634 0.291783 -0.712318
-6.42837 0.405755 -0.899047
-6.30945 0.551761 -0.535914
-6.38545 0.141794 -0.78001
-6.26653 0.287801 -0.416878
-6.47856 0.401772 -0.603606
-5.98474 0.742767 -0.66955
-5.96122 0.590783 -0.614227
-6.122 0.649255 -0.750452
-5.93201 0.635929 -0.759057
-5.86659 0.345457 -0.129882
-5.96054 -0.099592 -0.035866
-6.02 0.18664 -0.361582
-6.11312 0.446618 -0.185177
-5.91357 0.122933 -0.082874
-6.06698 -0.0358845 -0.314574
-6.16009 0.224094 -0.13817
-1.10421 0.363269 -0.931684
-0.773878 0.737644 -0.67519
-0.520452 0.269543 -0.962988
-0.384634 0.008888 -0.353445
-0.939043 0.550457 -0.803437
-0.812329 0.316406 -0.947336
-0.74442 0.186079 -0.642564
-0.647165 0.503594 -0.819089
-0.579256 0.373266 -0.514317
-0.452543 0.139215 -0.658216
-2.85287 -3.00249 -1.21636
-3.23054 -2.92385 -1.196
-3.06719 -3.3306 -1.25351
-2.88006 -3.17233 -1.03724
-3.06889 -3.13301 -1.02706
-2.98722 -3.33639 -1.05581
-3.0417 -2.96317 -1.20618
-2.96003 -3.16654 -1.23493
-3.14886 -3.12722 -1.22475
-3.38618 -2.05134 -0.098565
-2.37808 -2.56123 -0.134541
-2.49252 -2.47812 0.422472
-2.41131 -1.89586 0.044632
-2.88213 -2.30628 -0.116553
-2.93935 -2.26473 0.161954
-2.89875 -1.9736 -0.0269665
-2.4353 -2.51967 0.143966
-2.39469 -2.22855 -0.0449545
-2.45192 -2.18699 0.233552
-1.85713 -0.413967 0.42138
-1.65927 -0.390905 0.920431
-1.2503 -0.077569 0.384148
-1.80595 -0.084043 0.474172
-1.70702 -0.072512 0.723698
-1.50254 0.084156 0.455557
-1.7582 -0.402436 0.670905
-1.55371 -0.245768 0.402764
-1.45478 -0.234237 0.652289
-2.09043 2.55218 0.167395
-2.0659 2.66009 -0.048555
-2.19298 2.68445 0.126765
-2.18072 2.73841 0.0187895
-2.07816 2.60614 0.05942
-2.21652 2.53485 0.109564
-2.20426 2.58881 0.001589
-4.01665 2.44382 0.136481
-3.97233 2.67361 0.084512
-3.92539 2.49592 0.0761905
-3.99449 2.55872 0.110496
-4.01103 2.46769 0.005291
-3.90323 2.61082 0.050206
-3.98887 2.58259 -0.0206935
-3.92754 1.80484 -0.220103
-4.28096 1.83407 -0.225431
-4.13592 1.88983 -0.461486
-4.146 2.03152 -0.278406
-4.10425 1.81945 -0.222767
-4.03173 1.84734 -0.340795
-4.03677 1.91818 -0.249254
-4.20844 1.86195 -0.343458
-4.21348 1.9328 -0.251918
-4.14096 1.96068 -0.369946
-4.04038 -5 0.949212
-3.62468 -5 1.26221
-3.84559 -4.54287 1.07336
-3.71487 -5 0.728948
-3.83253 -5 1.10571
-3.94299 -4.77144 1.01129
-3.87763 -5 0.83908
-3.73513 -4.77144 1.16779
-3.66977 -5 0.99558
-3.78023 -4.77144 0.901156
-1.37334 0.812082 -0.583544
-0.975724 0.961208 -0.275823
-1.19336 -0.166381 -0.273753
-1.17453 0.886645 -0.429683
-1.07361 0.774863 -0.629367
-1.28335 0.32285 -0.428648
-0.874801 0.849426 -0.475506
-1.08454 0.397413 -0.274788
-0.983618 0.285631 -0.474471
-3.83515 -1.82017 -0.741539
-3.34976 -1.58414 -0.592596
-3.50394 -2.07825 -1.02313
-3.59245 -1.70215 -0.667067
-3.66955 -1.94921 -0.882335
-3.61067 -1.93575 -0.420052
-3.42685 -1.83119 -0.807863
-3.36797 -1.81774 -0.345581
-3.44506 -2.06479 -0.560848
-2.72946 0.769161 0.094533
-2.75119 0.681139 -0.326037
-2.98528 1.02631 -0.281501
-3.08113 0.734324 -0.34324
-2.74032 0.72515 -0.115752
-2.85737 0.897737 -0.093484
-2.90529 0.751742 -0.124353
-2.86823 0.853726 -0.303769
-2.91616 0.707731 -0.334639
-3.03321 0.880319 -0.31237
-2.94023 -2.47675 -0.674772
-3.14499 -2.03044 -0.633684
-3.22209 -2.2775 -0.848951
-3.16321 -2.26404 -0.386669
-3.03914 -4.25341 0.579285
-2.64287 -3.80807 0.20828
-2.47531 -4.18593 0.714333
-2.97264 -3.41482 0.618231
-2.84101 -4.03074 0.393783
-2.75723 -4.21967 0.646809
-3.00589 -3.83412 0.598758
-2.55909 -3.997 0.461307
-2.80776 -3.61144 0.413255
-2.72397 -3.80037 0.666282
-2.39684 -0.595487 -0.803365
-1.98884 -0.54749 -0.836812
-2.24172 -0.466498 -0.098067
-2.21295 -0.01831 -0.514797
-2.19284 -0.571489 -0.820088
-2.31928 -0.530992 -0.450716
-2.3049 -0.306899 -0.659081
-2.11528 -0.506994 -0.46744
-2.1009 -0.2829 -0.675804
-2.22734 -0.242404 -0.306432
-3.36239 -4.55484 -1.31864
-3.11171 -4.25429 -0.873787
-2.86199 -4.55394 -1.36046
-2.79118 -5 -0.96439
-3.23705 -4.40456 -1.09621
-3.11219 -4.55439 -1.33955
-3.07678 -4.77742 -1.14151
-2.98685 -4.40411 -1.11712
-2.95144 -4.62714 -0.919088
-2.82658 -4.77697 -1.16243
-3.88203 2.65205 -0.416886
-3.48121 2.84727 -0.340672
-3.82273 3 -0.474998
-3.72541 2.76868 -0.627028
-3.68162 2.74966 -0.378779
-3.85238 2.82603 -0.445942
-3.80372 2.71037 -0.521957
-3.65197 2.92364 -0.407835
-3.60331 2.80798 -0.48385
-3.77407 2.88434 -0.551013
[...]
POINT_DATA 7451
 
FIELD FieldData 2
velocity 3 7451 double
-0.121716 -0.348241 0.00901269
1.52863e-030 3.44919e-030 -1.8046e-031
4.46389e-031 1.21956e-030 -5.32354e-032
1.27659e-030 3.42357e-030 -1.64574e-031
-0.082815 -0.2022 0.0106737
-0.0724655 -0.199745 0.00867533
-0.0796551 -0.230075 0.0114754
-1.867e-018 -4.50471e-018 2.93481e-019
5.60915e-018 1.38972e-017 -1.02415e-018
1.88595e-029 -8.0885e-030 -4.39958e-030
8.84698e-030 2.96366e-030 -1.91867e-031
-0.407006 -0.108907 0.00079992
-0.620493 -0.141862 0.00692665
-0.698779 -0.228954 0.00558725
-0.225137 -0.0766856 0.00674303
-0.303724 -0.0927795 0.00948185
-0.40171 -0.14629 0.00888463
-0.529824 -0.133733 0.00659614
-0.586557 -0.173767 0.00491178
-0.669135 -0.191456 0.00781912
9.48682e-029 -2.86049e-031 2.74342e-032
-0.838738 0.00720135 -0.000601984
-1.09192 5.45478e-006 -0.000547346
5.48126e-029 -2.18363e-031 5.16664e-032
-0.546844 0.00332727 4.16008e-005
-0.827377 -5.6941e-005 -0.002509
-1.33202e-016 2.39044e-019 -3.15465e-019
-0.996605 0.00123292 -5.58961e-005
-0.475131 0.00626048 -0.000811052
-0.735003 0.00188374 -0.00017188
3.23101e-029 3.3259e-030 5.81929e-032
2.12819e-029 1.35453e-030 2.78179e-031
-0.693628 -0.10257 -0.013543
-0.875569 -0.0607935 -0.0050034
-1.46144e-016 -6.10527e-018 -1.47721e-018
-0.419303 -0.0477719 -0.00390597
-0.521729 -0.0332072 -0.00347352
-0.400274 -0.0310088 -0.0075661
-0.501113 -0.0230042 -0.00495478
-0.790174 -0.0839369 -0.00835691
-4.2693e-030 -6.53457e-029 1.33862e-030
0.026967 0.450321 0.00581207
-4.6606e-030 -7.71367e-029 1.8047e-030
-8.31073e-031 -9.99214e-030 -4.82318e-032
0.0242289 0.299765 -0.00153899
-5.30441e-017 -5.88774e-016 1.29359e-017
-4.10635e-018 -4.16971e-017 3.20014e-019
0.0274522 0.352218 -0.00318973
0.0227372 0.265388 0.00183568
-5.90262e-017 -6.31086e-016 6.85059e-018
-0.82244 -0.0160307 -0.00240184
-0.992165 -0.00963425 -0.00205927
-0.894153 -0.0127481 -0.00103073
-0.999779 -0.0026494 -0.000990296
-1.11927 -0.0170403 -0.00308593
-0.974638 -0.0168844 -0.00233498
-1.1033 -0.00464593 -0.00370079
-1.15672 -0.00254171 -0.000526934
-1.2549 -0.0168183 -0.00156656
-0.558347 -0.183531 0.00454239
-0.565464 -0.100399 -0.0197834
1.83962e-029 5.01547e-030 1.91005e-031
-0.617673 -0.162388 -0.00795218
-0.682437 -0.151581 -0.00378859
-0.307025 -0.107647 0.00317955
-0.629286 -0.109788 -0.0185895
-0.339526 -0.0920652 -0.0100846
-0.386945 -0.0830843 -0.00813804
-0.424012 -0.449162 -0.0188972
-0.458757 -0.260732 -0.0416214
-0.597049 -0.329993 -0.0113639
-0.235417 -0.294068 0.000853971
-0.457796 -0.379397 -0.032923
-0.51202 -0.391478 -0.0161701
-0.387348 -0.40934 -0.011941
-0.545225 -0.303913 -0.0263836
-0.380186 -0.322052 -0.0189962
-0.416406 -0.328666 -0.00448807
-1.67337e-029 -5.8714e-030 9.06636e-031
0.343766 0.0476851 -0.00447677
-2.01905e-029 -5.65441e-030 -3.99725e-031
-4.26773e-030 -1.87904e-031 5.31777e-033
0.185149 0.0264433 -0.00440799
5.9404e-017 3.70961e-018 2.44115e-018
3.17185e-018 1.83579e-019 -8.47546e-021
0.210377 0.0149388 -0.000665109
0.196293 0.00952798 0.00160964
-6.83417e-017 -1.81703e-019 -9.26484e-019
2.48023e-017 1.15138e-017 -6.87225e-019
2.71064e-030 1.23349e-030 -5.19635e-032
-0.503706 -0.20763 0.00853956
2.89596e-030 1.18159e-030 -5.43105e-032
1.24041e-017 6.20689e-018 -3.85016e-019
-0.284178 -0.125371 0.00651975
1.53561e-016 6.88793e-017 -2.24178e-018
-0.284253 -0.136856 0.00757645
1.51147e-016 7.73634e-017 -3.41981e-018
-0.313462 -0.133546 0.00569487
-0.033045 -0.237241 -0.0122488
-0.0202768 -0.254524 -0.00814355
-0.0125176 -0.236072 -0.00614103
-0.0516946 -0.496723 -0.0132004
-0.0287872 -0.269542 -0.0101848
-0.0230156 -0.23776 -0.00935343
-0.0451748 -0.378366 -0.0144264
-0.0186031 -0.271923 -0.00858624
-0.0378737 -0.398897 -0.0110509
-0.0317949 -0.382302 -0.010232
0.0117055 0.285222 0.00954693
-6.61378e-031 -2.11855e-029 -1.08221e-030
-3.32776e-031 -1.60592e-029 -9.12088e-031
-0.00173397 0.231945 0.0133808
0.00654893 0.147554 0.00815959
0.00571403 0.144423 0.00815395
0.00491271 0.287753 0.0126941
2.19271e-029 2.16728e-030 6.36685e-029
0.0023182 0.136047 0.00920211
0.00114945 0.116761 0.00827285
9.54871e-031 3.53852e-030 -9.46466e-032
-0.0905877 -0.375578 0.00389236
-0.0484606 -0.230573 0.00467308
-0.0581897 -0.235358 0.00605508
-0.0603201 -0.195094 0.00581682
-0.0276863 -0.11798 0.0032147
-0.110059 -0.374676 0.0055818
-0.0760514 -0.332417 0.00547095
-0.0821395 -0.28813 0.00714035
-2.67295e-031 -4.7301e-030 -2.30729e-031
-3.71486e-018 -6.846e-017 -4.89614e-018
3.61066e-018 6.13764e-017 4.29757e-018
0.00787369 0.140733 0.00681409
1.00869e-029 1.71796e-031 3.97349e-033
1.33631e-029 2.21737e-031 1.7106e-032
1.74309e-029 1.85741e-031 4.47159e-032
6.90354e-017 1.52294e-018 9.36697e-020
-0.516029 -0.0126608 -0.000589538
-4.8465e-030 -4.46161e-029 -2.25381e-029
-0.506618 -0.00641049 -0.000706781
-1.80343e-017 8.12897e-019 -3.96055e-020
-0.515436 -0.00578446 -0.0010713
-1.46701e-028 3.7465e-031 -6.81754e-032
0.478938 0.000522982 0.000694942
-5.42722e-029 4.21023e-032 -1.26704e-031
0.466614 -0.00214558 0.00128219
0.41117 -0.00129367 0.000280583
-6.60417e-017 4.5761e-020 -2.97177e-019
0.371289 -0.00026178 0.00132341
0.389188 0.000649096 0.000852977
0.528265 -0.00106088 0.00160104
0.392531 -0.00117861 0.0017049
-0.0795155 -0.32441 -0.0253814
-0.116645 -0.330008 -0.0303243
-0.168909 -0.537574 -0.0230372
-0.0890761 -0.392648 -0.0187379
-0.105571 -0.353753 -0.0303797
-0.133121 -0.479891 -0.0296674
-0.0923789 -0.388703 -0.0258817
-0.17577 -0.509858 -0.0328597
-0.10628 -0.3684 -0.0249402
-0.149651 -0.541105 -0.0270925
3.05271e-030 4.02938e-031 -6.75193e-032
-0.662442 -0.121829 0.00980019
6.6006e-030 5.27655e-031 -1.16442e-031
2.92685e-029 1.94592e-030 -1.50764e-031
-0.373797 -0.0493915 0.0102585
-9.72666e-017 -7.73685e-018 3.42568e-018
1.35311e-016 6.22671e-018 -3.97991e-018
-0.361514 -0.0436654 0.00887344
-0.37725 -0.0308424 0.00698997
-2.20661e-017 -7.19813e-019 7.81358e-019
-0.399377 -0.102212 -0.0144147
-0.678501 -0.23092 -0.0112138
-0.720518 -0.112576 -0.0065198
-0.404782 -0.117872 -0.00522263
-0.560483 -0.169237 -0.0138838
-0.576357 -0.118342 -0.0112776
-0.406601 -0.114286 -0.00959337
-0.7345 -0.173329 -0.0113298
-0.572162 -0.180899 -0.00667745
-0.587157 -0.127272 -0.00632296
-0.62125 -0.0137007 0.00171407
3.28381e-030 3.97082e-032 -5.78075e-033
2.92164e-029 3.64337e-031 -1.45881e-031
1.34587e-029 1.85933e-031 -2.56623e-032
-0.335253 -0.00343854 0.00117915
-0.332762 -0.00634572 0.00274701
-0.363025 -0.00433287 0.00194148
-2.3807e-016 -1.95437e-018 2.04444e-018
-1.14749e-016 -2.72642e-019 1.00524e-018
-1.08132e-029 -2.11734e-029 4.75254e-029
-0.058271 -0.395615 0.00511505
-0.05549 -0.320883 0.00529374
-0.086026 -0.369085 0.00633772
-0.0790722 -0.415771 0.00411128
-0.73088 -0.14769 -0.0384577
-0.402285 -0.0452638 -0.0164097
-0.594859 -0.199782 -0.0424218
-0.456079 -0.14529 -0.0326827
-0.684619 -0.257472 -0.0266145
-0.605471 -0.0963467 -0.0309507
-0.53861 -0.207212 -0.0178532
-0.803243 -0.0105216 0.000522036
-3.63919e-017 4.14478e-020 8.07691e-020
-0.803874 -0.00921785 0.00328424
-0.502904 -0.00745049 0.00293055
-2.44596e-029 -3.02479e-029 5.96514e-029
-0.503128 -0.0058776 0.00444512
-0.456964 -0.00800452 0.00169213
-0.932615 -0.0128203 0.00291669
-0.585644 -0.00295811 0.00295674
5.30652e-030 9.47113e-032 -5.78535e-033
-0.33983 -0.00651207 0.00188614
-7.67898e-017 -1.27445e-018 8.01088e-019
-1.01428e-016 -8.62796e-019 6.14554e-019
-1.10134 -0.0509743 0.00248452
-1.23264 -0.0413581 -0.003107
-1.0487 -0.0267442 0.000533909
-0.968783 -0.0224522 0.00316845
-1.23108 -0.0502407 5.87067e-005
-1.12584 -0.0264011 -0.00142778
-1.17347 -0.0273713 0.00129815
1.96666e-017 -1.65132e-019 -3.13102e-019
-4.79177e-029 4.43972e-031 4.71486e-031
-1.77806e-029 5.19006e-032 9.47929e-032
0.470329 -0.00438781 -0.000907901
-3.0249e-017 2.94231e-019 4.42571e-019
1.32172e-029 -3.20563e-029 9.69041e-029
0.288039 -0.0028975 -0.00292876
-3.11916e-017 1.02671e-019 3.22432e-019
0.322252 -0.00355801 -0.00235671
0.29113 0.000119157 -0.00200693
7.89478e-032 -7.21124e-030 -5.63081e-031
-3.25305e-031 -2.25318e-029 -1.36734e-030
-6.38247e-033 -2.6438e-030 -1.9809e-031
-0.00131336 0.118855 0.00917903
0.00205864 0.125859 0.00998575
5.33691e-005 0.11483 0.00813229
-7.15989e-019 1.23127e-030 5.21637e-029
-8.7265e-020 2.61373e-017 2.35831e-018
6.61469e-019 -5.53851e-017 -5.07488e-018
0.0218925 0.737538 -0.00187384
-0.0259098 0.535472 0.00238478
-0.0275694 0.694111 -0.029467
-0.0282774 0.677027 -0.0130868
-0.00746888 0.781799 0.00176829
-0.00392486 0.909581 -0.0175781
-0.00676266 0.880985 -0.00869394
-0.0281939 0.673484 -0.0101868
-0.0272385 0.607199 -0.0028567
-0.0293741 0.714916 -0.0224574
0.363353 0.155367 0.0221851
-2.60392e-029 -1.53248e-030 -1.47874e-031
0.45077 0.01384 -0.00250556
0.403585 0.0996315 0.0005741
0.243919 0.00608036 -0.000711992
0.417309 0.0306099 -0.00118322
0.194726 0.00446896 0.00801357
0.408407 0.0494597 -0.00204903
0.266215 0.000348765 -0.00326035
-1.97739e-018 -2.69516e-017 -1.04882e-018
1.09216e-031 1.24573e-030 5.51084e-032
-0.00758209 -0.119708 -0.003897
-0.00811934 -0.115432 -0.0035495
-4.19336e-018 -5.20045e-017 -1.94333e-018
-0.0165393 -0.129332 -0.00667682
-0.0152727 -0.122309 -0.00724107
-7.41314e-018 -2.99231e-017 1.0532e-018
2.80403e-031 1.78109e-030 -3.52911e-032
-0.0311472 -0.133207 0.00396781
1.24853e-017 6.62184e-017 -1.47978e-018
2.02655e-029 -6.6703e-030 -1.22316e-031
-0.0211974 -0.13119 0.0017009
2.18966e-017 1.18912e-016 -2.29067e-018
-0.182953 -0.295803 0.00754372
1.45474e-030 2.03889e-030 -1.06979e-031
6.87371e-031 1.10703e-030 -5.3035e-032
5.16042e-031 9.00357e-031 -4.45765e-032
-0.112469 -0.169924 0.00902979
-0.10293 -0.165104 0.00797786
-0.0999262 -0.170003 0.0082259
-5.13702e-017 -7.75703e-017 5.48669e-018
-2.86009e-016 -4.542e-016 3.18933e-017
-1.9785e-016 -3.32543e-016 2.20835e-017
-1.23806e-031 -3.55067e-030 1.36415e-031
-1.84532e-031 -9.99896e-030 4.4031e-031
-5.91098e-031 -1.75551e-029 8.89396e-031
0.00960242 0.37052 -0.0108787
-3.30533e-018 -1.38304e-016 6.24061e-018
-5.46508e-019 -1.59603e-017 7.89968e-019
0.00618915 0.215869 -0.00729325
2.93866e-018 1.05739e-016 -1.62984e-018
0.0055393 0.259247 -0.011225
0.00846202 0.257051 -0.012384
-5.53552e-029 -1.15364e-031 1.22538e-030
-5.81255e-029 3.38844e-031 6.21638e-031
0.473682 -0.0106668 -7.58396e-005
2.5014e-017 4.0036e-020 -6.29566e-019
-2.72202e-017 1.56827e-019 6.17081e-019
0.379481 -0.00289625 -0.00821173
-6.18927e-017 5.23578e-019 6.16428e-019
0.415382 -0.001544 -0.00587078
0.366123 -0.00536832 -0.0033598
6.11727e-020 9.11558e-019 4.43811e-020
0.0073147 0.408623 0.0172862
-2.19654e-030 -6.18307e-029 -2.28991e-030
0.00841618 0.222333 0.0109052
-9.16211e-018 -7.10101e-017 -9.48985e-018
0.0200718 0.401925 0.0101229
0.00773671 0.188943 0.012512
0.0149898 0.602557 0.0110029
0.016065 0.391244 0.0150318
0.0207156 -0.0550747 -0.0437455
0.0194108 -0.00866456 -0.031537
-0.127311 -0.208415 -0.0332495
-0.133313 -0.0985865 -0.0444001
0.0183642 -0.0410018 -0.0420203
-0.0608602 -0.157456 -0.0420607
-0.0613298 -0.0989497 -0.0504823
-0.0446052 -0.0920881 -0.0301109
-0.0502707 -0.0514792 -0.0384034
-0.124472 -0.157182 -0.0393322
-0.00177623 0.374205 0.0181805
0.00696353 0.42109 0.0183051
0.00722959 0.227309 0.0138004
0.00914616 0.600655 0.0137777
0.000704821 0.630329 -0.0226313
-0.0161211 0.674496 -0.0103025
-0.0166812 0.491022 -0.0254635
-0.000773264 0.692145 -0.034647
-0.00816876 0.699963 -0.0166278
-0.00950996 0.608786 -0.0260528
0.000368551 0.661941 -0.0292436
-0.0185659 0.622334 -0.0187003
-0.0102671 0.728679 -0.0200803
-0.0124767 0.620335 -0.030994
1.77161e-017 5.36473e-017 3.68772e-018
5.63564e-017 1.3928e-018 1.26917e-019
0.397546 0.44853 -0.0197034
0.298452 0.108857 -0.0250487
1.36138e-029 3.71315e-029 4.18953e-029
0.263694 0.297513 -0.0145262
0.199596 0.112543 -0.0177973
0.296921 0.169653 -0.0168667
0.229307 0.0575239 -0.0123413
0.380738 0.255947 -0.0276964
8.32717e-019 2.046e-017 1.64199e-018
0.00209229 0.214131 0.00891924
1.95174e-031 -1.3663e-029 -5.34103e-031
-0.00174795 0.160437 0.00338119
0.00239818 0.0996046 0.00592724
1.38907e-018 3.12063e-017 4.19804e-018
0.000635302 0.089531 0.00353227
2.02574e-005 0.0989414 0.00543951
-0.000676212 0.191609 0.0054818
-0.00107009 0.0780663 0.00301265
6.28463e-031 3.41552e-030 -7.11424e-032
-0.041553 -0.325897 0.00231364
5.89878e-031 1.09812e-029 -1.1593e-031
1.00184e-030 4.98478e-030 -9.01924e-032
-0.0280045 -0.191899 0.0037728
-2.88032e-017 -2.44718e-016 5.67928e-018
2.25392e-029 -4.92193e-030 1.57174e-029
-0.018045 -0.185774 0.00236724
-0.0259652 -0.177742 0.00186787
-2.30624e-017 -1.99089e-016 3.05559e-018
0.509047 -0.000297739 -0.000154104
-2.02623e-029 2.48477e-032 -5.42976e-033
-2.10652e-029 1.44925e-032 4.02612e-033
-3.58721e-029 4.9898e-032 5.93711e-033
0.343524 0.000143727 -6.58312e-005
0.34509 -0.000144966 -0.000225729
0.343037 -0.00028782 5.83989e-005
1.42059e-029 -6.55613e-020 9.52606e-020
1.28792e-029 -8.4186e-022 -1.22714e-020
2.51479e-017 -1.64664e-020 -1.39905e-030
0.19735 0.733142 -0.0414496
-0.0121306 0.817493 -0.0239327
-0.0176516 0.888798 -0.0781469
0.0354423 0.731584 -0.00213887
0.0899751 0.902568 -0.0460104
0.0666712 0.852559 -0.067603
0.134749 0.843466 -0.0349537
-0.0185424 0.977069 -0.0575565
0.0513783 0.835707 -0.0151663
0.0421343 0.978548 -0.0494872
-7.58459e-029 1.06623e-031 2.94035e-032
-4.46974e-029 9.08985e-032 1.00177e-031
-5.54658e-029 4.36778e-031 -3.67086e-032
0.466469 -0.00385689 8.89461e-006
1.95229e-017 1.01723e-019 -1.02942e-019
3.80357e-019 -3.79826e-022 -5.69744e-022
0.368829 4.7661e-005 -0.00133312
8.98556e-019 -2.0941e-022 3.4762e-030
0.329559 0.000447552 -0.00111512
0.374807 -0.00248579 0.000573032
8.22313e-030 4.78042e-030 -2.43671e-031
-0.389693 -0.236225 0.0120047
2.80165e-030 1.65977e-030 -1.0413e-031
-0.265836 -0.170227 0.00992252
-0.258204 -0.137909 0.00784011
5.68725e-016 3.83096e-016 -2.8376e-017
-0.446909 -0.225175 0.0101334
-0.235146 -0.1541 0.0113542
-0.247981 -0.136139 0.00795697
-0.830996 0.000829649 0.0059196
1.79543e-028 -2.20831e-031 -2.60282e-031
1.33625e-029 -8.51595e-032 -1.66473e-031
-0.829857 0.00504518 0.00290228
-0.550485 0.00262895 0.00273856
-0.496084 -0.000443052 0.00628067
-0.918407 0.00396093 0.00352096
-2.30968e-029 3.30955e-029 6.15878e-029
-0.468226 0.00425694 0.00188104
-0.500484 0.00632691 0.00349297
-3.61909e-029 3.5898e-031 2.38962e-031
-1.32757e-029 2.17382e-031 1.66175e-031
-2.05313e-029 -8.25795e-031 7.95804e-032
-4.5244e-017 2.00659e-018 3.91e-019
-1.17178e-018 1.94147e-020 3.91956e-020
0.294688 -0.00260499 -0.0018443
-1.60886e-017 4.32483e-019 6.00107e-019
0.272272 -0.00562395 -0.00236038
0.28187 0.00370657 -0.011155
-7.92155e-029 1.26954e-030 -2.57129e-031
0.376856 -0.00617679 0.000435051
0.315371 -0.00937037 0.00194653
0.341643 -0.0067949 0.000754317
0.523381 -0.00775533 -0.000157982
0.540688 -0.00528606 -0.000179349
0.476328 -0.00998126 -0.000609757
-1.73466e-029 -1.30756e-031 1.61068e-032
-3.25689e-029 4.49997e-031 -1.99699e-032
5.32932e-017 -2.63535e-018 -3.01837e-019
4.65467e-017 -2.01902e-018 -3.16791e-019
0.276088 -0.00342716 -0.000721637
4.17393e-018 -2.10872e-019 -4.94233e-020
0.283736 -0.00415949 -0.00280729
-6.06883e-029 2.38582e-031 2.47268e-031
0.466051 0.00162287 -0.000677844
-4.03837e-029 1.35967e-031 1.06481e-031
0.286137 -0.00147465 -0.00080559
-9.65169e-017 1.38086e-019 6.97781e-019
0.366079 -0.0029214 -0.00187922
0.297673 -5.12241e-005 -0.00078562
0.488542 -0.00146882 -0.000786511
0.314423 0.000660224 -0.00219293
-1.62461e-029 1.22232e-031 -1.31599e-031
-4.78306e-029 9.5273e-033 -3.14256e-031
-5.57018e-029 3.06906e-031 -2.69395e-031
3.30617e-017 -5.22989e-019 8.26627e-019
-3.55745e-017 6.04801e-019 -7.90686e-019
0.289231 -0.00380902 0.00570317
-2.32341e-017 3.2561e-019 -3.83587e-019
0.300743 -0.00290574 0.00385554
0.300535 -0.00332391 0.00286066
1.39468e-030 -8.10544e-030 4.29894e-031
-0.178721 0.116508 -0.0211273
1.91136e-030 -3.71192e-030 5.53192e-031
0.0738736 0.219688 -0.0276444
-0.0596563 0.0852553 -0.0055823
1.89261e-018 6.94139e-018 4.12913e-020
0.00835087 0.137456 -0.00682283
-0.0675885 0.0431713 -0.00505944
-0.0682287 0.181334 -0.0225981
-0.00411251 0.0770293 -0.00771274
-6.57085e-030 -3.49186e-030 -7.49446e-031
-5.27673e-029 -7.29494e-030 -8.76863e-031
-8.93886e-030 -1.91361e-029 2.74011e-031
0.204516 0.0423868 0.033081
0.24209 0.085051 0.0191518
0.254504 0.192413 0.0477949
2.79034e-030 5.18715e-029 -3.21426e-029
5.57137e-017 5.13893e-017 1.18402e-017
-6.94335e-017 -4.4048e-017 -1.23148e-017
-2.12502e-029 -1.00194e-031 1.66509e-032
-1.33792e-017 -2.01493e-029 -7.97809e-020
5.17312e-017 -1.74891e-018 5.78356e-021
0.305888 -0.00123457 0.00159523
-0.0936964 -0.266334 0.00269235
1.59994e-030 3.25578e-030 -5.06137e-032
-0.151962 -0.264466 -0.00473658
3.55997e-030 8.02515e-030 4.98344e-032
-0.0600906 -0.138128 0.00362505
-0.126876 -0.274077 -0.000915529
-0.0605142 -0.14612 0.00224949
-0.0838002 -0.15257 0.00157587
9.93567e-018 1.96213e-017 -4.63423e-019
-0.0732544 -0.13977 -0.000162695
-0.284663 -0.32465 -0.0301966
-0.265046 -0.48687 -0.0301829
-0.117988 -0.184451 -0.0156502
-0.218898 -0.280834 -0.0366808
-0.283402 -0.416209 -0.0311583
-0.196111 -0.273293 -0.0248469
-0.222082 -0.368274 -0.0382566
-0.132543 -0.206657 -0.0217899
-0.21054 -0.364771 -0.0288035
0.464343 0.00155954 9.70226e-005
-9.54618e-029 -2.5566e-031 3.39232e-031
-3.91783e-029 -1.81779e-031 5.08965e-032
0.47719 0.00206793 -0.00073068
0.303653 0.00238301 -0.000853036
0.2871 0.00237126 0.000645641
0.484143 0.00254261 -0.0010246
4.17483e-029 -8.34831e-030 -1.0483e-028
0.396978 -0.00144841 -0.00154939
0.349375 -0.000381341 -0.000321746
-1.71697e-029 2.492e-032 1.66487e-032
-4.54598e-029 1.55117e-032 -7.87283e-033
-8.48264e-029 4.01643e-032 4.74128e-032
1.30615e-029 4.7328e-029 8.34036e-029
0.291565 -0.000445843 -0.000234436
6.34402e-017 3.06108e-019 -3.21502e-020
0.319438 0.00064202 0.000457682
-2.99897e-017 -9.5826e-020 2.59347e-020
0.29154 -6.91975e-005 -0.000395844
-2.56934e-029 4.51561e-032 -2.89679e-032
-4.98103e-029 5.16188e-032 -1.06207e-031
0.504994 -0.000567541 0.000238324
-8.60308e-029 1.17402e-031 -2.07032e-031
8.29886e-017 -1.96543e-019 4.04682e-019
0.382437 -0.000840044 0.00073989
-6.54733e-017 3.59952e-019 -1.64685e-019
0.392947 -0.000682085 0.00192905
3.1074e-017 5.7058e-020 2.04972e-019
0.37283 -0.0022078 0.000643888
0.46338 0.00117054 -0.00062606
-9.52486e-029 3.31534e-032 9.95913e-032
0.531906 0.000134336 -6.15324e-005
0.340441 0.000267992 -0.000384835
0.466458 0.00199856 0.000420477
0.371991 -0.00149986 0.0010912
0.538281 0.00196782 -0.000920112
0.378602 0.000810024 -0.000343781
1.27038e-029 1.24701e-031 -9.61203e-032
-0.344273 -0.00534092 0.00460774
8.34044e-017 9.18306e-019 -3.21642e-018
-0.458274 -0.00489119 0.00471265
-0.74653 -0.0108109 0.00431582
1.19723e-030 -5.13021e-029 3.06098e-030
1.47e-031 -9.42986e-029 5.47519e-030
-0.00934536 0.585141 -0.0341945
-1.12464e-005 0.587445 -0.0348849
-0.0115886 0.405821 -0.0254692
1.2994e-018 -7.69013e-017 5.04922e-018
-0.00755885 0.479261 -0.0292559
0.000660718 0.581658 0.0017592
0.012572 0.303591 0.00395484
0.0044209 0.578601 -0.00416277
0.000197318 0.395645 0.00238344
0.0096084 0.475122 0.00383236
0.00357574 0.583962 -0.00146887
0.000422015 0.494872 0.00288072
0.00875161 0.467588 0.000482241
0.00553325 0.379132 0.00333673
0.00210879 0.514483 0.000254427
0.00764849 0.284552 0.00752685
0.00190052 0.412397 0.00783081
0.0010006 0.306583 0.00499632
8.3248e-029 1.54329e-030 6.31878e-031
1.3984e-028 2.83887e-030 9.22914e-031
2.50146e-029 2.94204e-031 1.14582e-031
-0.624279 -0.0080478 -0.00344299
-0.588675 -0.00897168 -0.00565715
-0.588499 -0.00998329 -0.00340197
-1.34619e-016 3.09505e-019 -1.78e-018
-1.59138e-016 -2.93409e-018 -1.29126e-018
-1.51233e-016 -3.13923e-018 -1.7829e-018
7.08411e-031 2.6275e-030 -5.94805e-032
-0.159951 -0.466475 -0.0025172
3.96239e-030 1.92601e-029 8.82541e-032
1.48813e-030 7.13956e-030 -1.30964e-031
-0.0920615 -0.339623 0.00650126
4.46401e-030 -4.06422e-030 -2.68801e-029
-4.13452e-017 -1.99222e-016 6.92078e-018
-0.0822334 -0.340586 0.0014703