# vtk DataFile Version 2.0 
output.vtk, Created by Freefem++, via gregorio
ASCII
DATASET UNSTRUCTURED_GRID
POINTS 7451 double
-3.79965 2.23652 0.040848
-4.13429 2.05574 0.276253
-4.09122 2.24524 0.070091
-4.01836 2.27766 0.330071
-3.96697 2.14613 0.158551
-3.94543 2.24088 0.0554695
-3.90901 2.25709 0.185459
-4.11275 2.15049 0.173172
-4.07633 2.1667 0.303162
-4.05479 2.26145 0.200081
-4.81817 0.732763 -0.840268
-4.76136 0.37264 -0.736193
-5.12328 0.495929 -0.550642
-4.73872 0.559667 -0.434419
-4.78977 0.552702 -0.788231
-4.97072 0.614346 -0.695455
-4.77845 0.646215 -0.637344
-4.94232 0.434285 -0.643417
-4.75004 0.466153 -0.585306
-4.931 0.527798 -0.49253
-7.58244 -0.891248 -0.453516
-8 -0.559587 0.124298
-7.26059 -0.264226 0.250847
-7.58828 -0.999993 0.00381
-7.79122 -0.725418 -0.164609
-7.42152 -0.577737 -0.101334
-7.58536 -0.94562 -0.224853
-7.6303 -0.411906 0.187573
-7.79414 -0.77979 0.064054
-7.42444 -0.632109 0.127328
-5.46564 0.048234 0.998836
-5.51396 -0.351144 0.936321
-5.02851 -0.125769 0.598961
-5.56665 -0.148801 0.504295
-5.4898 -0.151455 0.967578
-5.24708 -0.0387675 0.798898
-5.51614 -0.0502835 0.751565
-5.27124 -0.238457 0.767641
-5.5403 -0.249972 0.720308
-5.29758 -0.137285 0.551628
-4.20269 -2.80441 0.102764
-3.63085 -2.57461 -0.287529
-4.13183 -2.29387 0.255347
-4.14432 -2.47254 -0.273935
-3.91677 -2.68951 -0.0923825
-4.16726 -2.54914 0.179055
-4.1735 -2.63848 -0.0855855
-3.88134 -2.43424 -0.016091
-3.88759 -2.52358 -0.280732
-4.13807 -2.38321 -0.009294
-6.25062 -0.085247 0.575431
-6.51584 -0.423084 -0.15939
-6.46019 0.447486 0.293263
-6.75561 -0.174737 0.413139
-6.38323 -0.254165 0.20802
-6.35541 0.181119 0.434347
-6.88822 -0.343655 0.0457285
-6.86039 0.09163 0.272055
-6.48801 0.012201 0.0669365
-4.88162 0.371746 0.655425
-4.51246 -0.112716 0.623981
-4.65723 0.09269 0.995695
-4.69704 0.129515 0.639703
-4.95507 0.122989 0.627193
-4.76942 0.232218 0.82556
-4.77049 -0.119243 0.611471
-4.58484 -0.010013 0.809838
-4.84287 -0.0165395 0.797328
-3.75099 1.20677 0.090288
-3.64118 0.745776 0.266863
-4.09568 0.790235 0.315934
-3.78936 1.07086 0.69071
-3.69609 0.976272 0.178575
-3.92333 0.998502 0.203111
-3.77017 1.13882 0.390499
-3.86843 0.768006 0.291399
-3.71527 0.908319 0.478787
-3.94252 0.930549 0.503322
-2.18572 0.40145 0.915881
-1.75478 0.245881 0.526965
-1.94554 -0.013967 0.999902
-1.76886 0.356252 0.93439
-1.97025 0.323665 0.721423
-2.06563 0.193741 0.957891
-1.97729 0.378851 0.925135
-1.85016 0.115957 0.763433
-1.76182 0.301067 0.730678
-1.8572 0.171143 0.967146
-5.06116 0.824959 0.710182
-4.88551 0.773989 0.80113
-4.92155 0.772883 0.437198
-5.01596 0.602336 0.857802
-4.97333 0.799474 0.755656
-4.99135 0.798921 0.57369
-5.03856 0.713647 0.783992
-4.90353 0.773436 0.619164
-4.95074 0.688163 0.829466
-4.96876 0.687609 0.6475
-2.34262 2.51752 0.051733
-2.4672 2.85727 -0.311185
-2.29554 2.81673 0.086134
-2.65762 2.74748 0.16058
-2.40491 2.6874 -0.129726
-2.31908 2.66712 0.0689335
-2.50012 2.6325 0.106157
-2.38137 2.837 -0.112526
-2.56241 2.80238 -0.0753025
-2.47658 2.7821 0.123357
-3.50303 -3.76846 -0.636668
-3.49422 -3.29308 -1.15018
-3.31427 -3.71149 -1.25136
-2.90724 -3.34218 -0.858121
-3.49863 -3.53077 -0.893424
-3.40865 -3.73997 -0.944014
-3.20514 -3.55532 -0.747394
-3.40425 -3.50228 -1.20077
-3.20073 -3.31763 -1.00415
-3.11076 -3.52683 -1.05474
-4.0054 2.49156 -0.125899
-3.5956 2.50054 -0.194198
-3.83412 2.54803 0.0159
-3.8005 2.49605 -0.160049
-3.90253 2.36404 -0.0425255
-3.91976 2.5198 -0.0549995
-3.69763 2.36853 -0.076675
-3.71486 2.52428 -0.089149
-3.81689 2.39228 0.028374
-3.73452 -3.68531 -1.05781
-3.52439 -3.6984 -1.15459
-3.61437 -3.4892 -1.104
-3.61877 -3.72688 -0.84724
-6.37864 0.944563 0.328331
-6.25891 0.813305 0.581838
-6.65332 0.772267 0.635298
-6.31878 0.878934 0.455085
-6.41941 0.696025 0.310797
-6.51598 0.858415 0.481815
-6.35955 0.630395 0.43755
-6.45612 0.792786 0.608568
-6.55675 0.609877 0.46428
1.62066 -0.841518 -0.540229
1.89324 0.238579 -0.195511
2.01627 -0.690819 -0.723027
2.25185 -0.211859 0.261412
1.75695 -0.30147 -0.36787
1.81846 -0.766169 -0.631628
1.93625 -0.526689 -0.139408
1.95475 -0.22612 -0.459269
2.07254 0.01336 0.0329505
2.13406 -0.451339 -0.230807
-2.56949 2.06853 0.305158
-2.91403 1.60744 0.564909
-3.02709 2.08175 0.021586
-2.87501 2.07662 0.630995
-2.74176 1.83799 0.435033
-2.79829 2.07514 0.163372
-2.72225 2.07258 0.468077
-2.97056 1.8446 0.293247
-2.89452 1.84203 0.597952
-2.95105 2.07919 0.32629
-5.39985 0.358755 0.933432
-5.34934 0.453264 0.543553
-5.56264 0.558471 0.829524
-5.70805 0.297641 0.954678
-5.37459 0.40601 0.738492
-5.48124 0.458613 0.881478
-5.55395 0.328198 0.944055
-5.45599 0.505868 0.686538
-5.52869 0.375452 0.749116
-5.63535 0.428056 0.892101
-4.17913 0.323834 -0.696515
-4.36183 0.516245 -0.417662
-4.60784 0.019305 -0.528365
-4.46586 0.364911 -0.72315
-4.27048 0.42004 -0.557088
-4.39349 0.17157 -0.61244
-4.3225 0.344372 -0.709832
-4.48483 0.267775 -0.473013
-4.41384 0.440578 -0.570406
-4.53685 0.192108 -0.625757
-5.9377 0.438799 -0.558905
-5.87927 0.529091 -0.848565
-6.25926 0.555743 -0.831354
-6.07929 0.245277 -0.969453
-5.90849 0.483945 -0.703735
-6.09848 0.497271 -0.695129
-6.00849 0.342038 -0.764179
-6.06927 0.542417 -0.839959
-5.97928 0.387184 -0.909009
-6.16928 0.40051 -0.900404
-3.64743 2.72944 0.180305
-3.74077 2.63873 0.0981025
-3.72354 2.48298 0.110576
-3.62151 2.61499 -0.0069465
-3.98168 0.388062 0.141859
-3.76543 0.320245 0.603448
-3.81143 0.566919 0.204361
-3.70331 0.533011 0.435156
-4.03868 0.589149 0.228897
-3.87356 0.354154 0.372653
-3.93055 0.55524 0.459691
-6.17342 0.027823 -0.593282
-6.59748 0.255766 -0.966739
-6.35964 0.547779 -0.240473
-6.21634 0.291783 -0.712318
-6.42837 0.405755 -0.899047
-6.30945 0.551761 -0.535914
-6.38545 0.141794 -0.78001
-6.26653 0.287801 -0.416878
-6.47856 0.401772 -0.603606
-5.98474 0.742767 -0.66955
-5.96122 0.590783 -0.614227
-6.122 0.649255 -0.750452
-5.93201 0.635929 -0.759057
-5.86659 0.345457 -0.129882
-5.96054 -0.099592 -0.035866
-6.02 0.18664 -0.361582
-6.11312 0.446618 -0.185177
-5.91357 0.122933 -0.082874
-6.06698 -0.0358845 -0.314574
-6.16009 0.224094 -0.13817
-1.10421 0.363269 -0.931684
-0.773878 0.737644 -0.67519
-0.520452 0.269543 -0.962988
-0.384634 0.008888 -0.353445
-0.939043 0.550457 -0.803437
-0.812329 0.316406 -0.947336
-0.74442 0.186079 -0.642564
-0.647165 0.503594 -0.819089
-0.579256 0.373266 -0.514317
-0.452543 0.139215 -0.658216
-2.85287 -3.00249 -1.21636
-3.23054 -2.92385 -1.196
-3.06719 -3.3306 -1.25351
-2.88006 -3.17233 -1.03724
-3.06889 -3.13301 -1.02706
-2.98722 -3.33639 -1.05581
-3.0417 -2.96317 -1.20618
-2.96003 -3.16654 -1.23493
-3.14886 -3.12722 -1.22475
-3.38618 -2.05134 -0.098565
-2.37808 -2.56123 -0.134541
-2.49252 -2.47812 0.422472
-2.41131 -1.89586 0.044632
-2.88213 -2.30628 -0.116553
-2.93935 -2.26473 0.161954
-2.89875 -1.9736 -0.0269665
-2.4353 -2.51967 0.143966
-2.39469 -2.22855 -0.0449545
-2.45192 -2.18699 0.233552
-1.85713 -0.413967 0.42138
-1.65927 -0.390905 0.920431
-1.2503 -0.077569 0.384148
-1.80595 -0.084043 0.474172
-1.70702 -0.072512 0.723698
-1.50254 0.084156 0.455557
-1.7582 -0.402436 0.670905
-1.55371 -0.245768 0.402764
-1.45478 -0.234237 0.652289
-2.09043 2.55218 0.167395
-2.0659 2.66009 -0.048555
-2.19298 2.68445 0.126765
-2.18072 2.73841 0.0187895
-2.07816 2.60614 0.05942
-2.21652 2.53485 0.109564
-2.20426 2.58881 0.001589
-4.01665 2.44382 0.136481
-3.97233 2.67361 0.084512
-3.92539 2.49592 0.0761905
-3.99449 2.55872 0.110496
-4.01103 2.46769 0.005291
-3.90323 2.61082 0.050206
-3.98887 2.58259 -0.0206935
-3.92754 1.80484 -0.220103
-4.28096 1.83407 -0.225431
-4.13592 1.88983 -0.461486
-4.146 2.03152 -0.278406
-4.10425 1.81945 -0.222767
-4.03173 1.84734 -0.340795
-4.03677 1.91818 -0.249254
-4.20844 1.86195 -0.343458
-4.21348 1.9328 -0.251918
-4.14096 1.96068 -0.369946
-4.04038 -5 0.949212
-3.62468 -5 1.26221
-3.84559 -4.54287 1.07336
-3.71487 -5 0.728948
-3.83253 -5 1.10571
-3.94299 -4.77144 1.01129
-3.87763 -5 0.83908
-3.73513 -4.77144 1.16779
-3.66977 -5 0.99558
-3.78023 -4.77144 0.901156
-1.37334 0.812082 -0.583544
-0.975724 0.961208 -0.275823
-1.19336 -0.166381 -0.273753
-1.17453 0.886645 -0.429683
-1.07361 0.774863 -0.629367
-1.28335 0.32285 -0.428648
-0.874801 0.849426 -0.475506
-1.08454 0.397413 -0.274788
-0.983618 0.285631 -0.474471
-3.83515 -1.82017 -0.741539
-3.34976 -1.58414 -0.592596
-3.50394 -2.07825 -1.02313
-3.59245 -1.70215 -0.667067
-3.66955 -1.94921 -0.882335
-3.61067 -1.93575 -0.420052
-3.42685 -1.83119 -0.807863
-3.36797 -1.81774 -0.345581
-3.44506 -2.06479 -0.560848
-2.72946 0.769161 0.094533
-2.75119 0.681139 -0.326037
-2.98528 1.02631 -0.281501
-3.08113 0.734324 -0.34324
-2.74032 0.72515 -0.115752
-2.85737 0.897737 -0.093484
-2.90529 0.751742 -0.124353
-2.86823 0.853726 -0.303769
-2.91616 0.707731 -0.334639
-3.03321 0.880319 -0.31237
-2.94023 -2.47675 -0.674772
-3.14499 -2.03044 -0.633684
-3.22209 -2.2775 -0.848951
-3.16321 -2.26404 -0.386669
-3.03914 -4.25341 0.579285
-2.64287 -3.80807 0.20828
-2.47531 -4.18593 0.714333
-2.97264 -3.41482 0.618231
-2.84101 -4.03074 0.393783
-2.75723 -4.21967 0.646809
-3.00589 -3.83412 0.598758
-2.55909 -3.997 0.461307
-2.80776 -3.61144 0.413255
-2.72397 -3.80037 0.666282
-2.39684 -0.595487 -0.803365
-1.98884 -0.54749 -0.836812
-2.24172 -0.466498 -0.098067
-2.21295 -0.01831 -0.514797
-2.19284 -0.571489 -0.820088
-2.31928 -0.530992 -0.450716
-2.3049 -0.306899 -0.659081
-2.11528 -0.506994 -0.46744
-2.1009 -0.2829 -0.675804
-2.22734 -0.242404 -0.306432
-3.36239 -4.55484 -1.31864
-3.11171 -4.25429 -0.873787
-2.86199 -4.55394 -1.36046
-2.79118 -5 -0.96439
-3.23705 -4.40456 -1.09621
-3.11219 -4.55439 -1.33955
-3.07678 -4.77742 -1.14151
-2.98685 -4.40411 -1.11712
-2.95144 -4.62714 -0.919088
-2.82658 -4.77697 -1.16243
-3.88203 2.65205 -0.416886
-3.48121 2.84727 -0.340672
-3.82273 3 -0.474998
-3.72541 2.76868 -0.627028
-3.68162 2.74966 -0.378779
-3.85238 2.82603 -0.445942
-3.80372 2.71037 -0.521957
-3.65197 2.92364 -0.407835
-3.60331 2.80798 -0.48385
-3.77407 2.88434 -0.551013
[...]
POINT_DATA 7451
 
FIELD FieldData 2
velocity 3 7451 double
-0.11643 -0.336491 0.00635204
1.43371e-030 3.20699e-030 -1.29617e-031
4.26898e-031 1.16764e-030 -3.68797e-032
1.19068e-030 3.15295e-030 -1.18821e-031
-0.0789165 -0.191717 0.00767513
-0.0699234 -0.193001 0.00607925
-0.0756483 -0.216157 0.00848113
-1.79191e-018 -4.28027e-018 2.09164e-019
5.30259e-018 1.29189e-017 -7.43303e-019
1.87166e-029 -7.98652e-030 -4.37337e-030
8.38775e-030 2.84301e-030 -1.62942e-031
-0.388923 -0.105862 0.000359677
-0.592016 -0.136992 0.00541095
-0.663596 -0.217477 0.00469126
-0.215874 -0.074828 0.00598075
-0.291072 -0.0901943 0.00827984
-0.384023 -0.141368 0.00751604
-0.505758 -0.129385 0.00557764
-0.558631 -0.166732 0.00410889
-0.637051 -0.183297 0.00627877
8.96287e-029 -2.48825e-031 2.55732e-032
-0.798211 0.00678887 -0.000567417
-1.0325 -5.48037e-005 -0.000392116
5.18944e-029 -2.00461e-031 4.7022e-032
-0.522354 0.00295084 -7.65802e-005
-0.788392 -0.000263142 -0.00238798
-1.27593e-016 1.99898e-019 -3.09778e-019
-0.94554 0.00111307 -4.10149e-005
-0.454826 0.00591894 -0.000861657
-0.701474 0.0017611 -0.00017189
3.06071e-029 2.99247e-030 5.35402e-032
2.01891e-029 1.20658e-030 2.45272e-031
-0.660919 -0.0892401 -0.0112337
-0.831394 -0.0537439 -0.00421264
-1.40461e-016 -6.32041e-018 -1.46424e-018
-0.401554 -0.0434446 -0.00361296
-0.498798 -0.0303184 -0.00320144
-0.383358 -0.0278758 -0.00680225
-0.479193 -0.0208237 -0.00475647
-0.751431 -0.0737394 -0.00689289
-4.06031e-030 -6.18681e-029 7.3027e-031
0.027249 0.481288 0.0101064
-4.45289e-030 -7.28198e-029 1.01146e-030
-8.35788e-031 -1.02882e-029 -1.4888e-031
0.0239527 0.300031 0.00107402
-5.05439e-017 -5.55956e-016 1.15259e-017
-4.12403e-018 -4.16951e-017 -7.58971e-020
0.0271156 0.345355 -4.52941e-005
0.0232986 0.280589 0.00459803
-5.91609e-017 -6.19594e-016 8.04777e-019
-0.782207 -0.0148458 -0.00239994
-0.939567 -0.00960931 -0.00128592
-0.850459 -0.0118672 -0.00144022
-0.948723 -0.00277766 -0.000995982
-1.05929 -0.0158711 -0.00266406
-0.925604 -0.0156826 -0.00247396
-1.04407 -0.00441507 -0.00309941
-1.0949 -0.00264118 -0.000691502
-1.18528 -0.0158742 -0.00158355
-0.531885 -0.164904 0.00289909
-0.541256 -0.0855044 -0.0152151
1.74262e-029 4.3784e-030 1.56014e-031
-0.587823 -0.142513 -0.00643546
-0.649823 -0.134477 -0.00335523
-0.293625 -0.0965592 0.00265796
-0.600657 -0.0947336 -0.0151804
-0.325686 -0.0798834 -0.00851542
-0.370598 -0.0735351 -0.00705011
-0.394884 -0.424779 -0.0101904
-0.426126 -0.243564 -0.0219477
-0.557172 -0.304476 -0.00590247
-0.21736 -0.256017 0.00206412
-0.42497 -0.355038 -0.0179751
-0.476726 -0.364987 -0.00844512
-0.358033 -0.371725 -0.0053476
-0.50738 -0.281224 -0.0137501
-0.351672 -0.290408 -0.0088875
-0.38674 -0.29655 -0.000837739
-1.54071e-029 -4.6637e-030 4.64498e-031
0.320692 0.0378389 -0.000951299
-1.88251e-029 -4.63639e-030 -4.51473e-031
-3.97403e-030 -1.33724e-031 -1.76516e-032
0.172605 0.0204377 -0.00173219
5.56057e-017 4.33634e-019 2.53236e-018
2.97157e-018 1.29716e-019 1.2647e-020
0.197697 0.0116054 0.000436334
0.184067 0.0070519 0.00209211
-6.44504e-017 7.63034e-020 -8.7443e-019
2.38539e-017 1.0833e-017 -4.50839e-019
2.5687e-030 1.1327e-030 -3.19366e-032
-0.479841 -0.194069 0.00495483
2.74708e-030 1.08563e-030 -3.68334e-032
1.19181e-017 5.80384e-018 -2.59966e-019
-0.272161 -0.117637 0.0041153
9.37088e-017 6.43532e-017 -2.2433e-018
-0.271935 -0.127523 0.00499701
1.45098e-016 7.22578e-017 -2.27304e-018
-0.299862 -0.124308 0.00341357
-0.0317126 -0.230609 -0.00752871
-0.0194371 -0.265934 -0.00595017
-0.011974 -0.227811 -0.00329652
-0.0485496 -0.467328 -0.00682924
-0.0275852 -0.271993 -0.00659133
-0.0219924 -0.23026 -0.00557945
-0.04279 -0.361891 -0.00813519
-0.0177023 -0.273807 -0.00570228
-0.0361076 -0.398347 -0.00667964
-0.0300406 -0.364318 -0.00531153
0.0122418 0.333735 0.0134943
-6.75186e-031 -2.42079e-029 -1.37139e-030
-3.35804e-031 -1.85887e-029 -1.13552e-030
-0.00184652 0.270084 0.0167286
0.00690702 0.170866 0.010167
0.00586198 0.168166 0.0102743
0.00476178 0.33722 0.0169427
2.17415e-029 3.37756e-030 6.3253e-029
0.0019486 0.155753 0.011064
0.00080701 0.133859 0.00978472
9.27536e-031 3.49763e-030 -6.61133e-032
-0.0885854 -0.383067 0.00289961
-0.0470093 -0.225118 0.00290439
-0.0574291 -0.237349 0.00442739
-0.0588079 -0.192217 0.00373275
-0.0272015 -0.11676 0.0020274
-0.106414 -0.371287 0.00384146
-0.0741267 -0.330687 0.00375702
-0.0790697 -0.279975 0.00484495
-2.81506e-031 -5.44115e-030 -2.98014e-031
-3.90738e-018 -7.88683e-017 -5.89264e-018
3.86809e-018 7.03259e-017 5.1242e-018
0.00839472 0.162919 0.00874233
9.59235e-030 1.62059e-031 1.10935e-032
1.27048e-029 2.05486e-031 2.2848e-032
1.65633e-029 1.7859e-031 4.96586e-032
6.65836e-017 1.46039e-018 1.28761e-019
-0.494667 -0.0120486 -0.000908493
-4.50826e-030 -4.42429e-029 -2.2356e-029
-0.485692 -0.00606075 -0.000885136
-1.73803e-017 7.84567e-019 1.89874e-019
-0.493663 -0.00549089 -0.00119461
-1.36704e-028 3.59825e-031 -5.92169e-032
0.447622 0.000338402 0.000608524
-5.06696e-029 5.38026e-032 -1.18638e-031
0.436166 -0.00187737 0.00117446
0.386494 -0.00136786 0.000301326
-6.2428e-017 8.04266e-020 -2.73069e-019
0.349833 -0.000361962 0.00119632
0.366565 0.000444921 0.000864675
0.493059 -0.00103819 0.0014569
0.369733 -0.00122279 0.00158447
-0.0748799 -0.296365 -0.015136
-0.107381 -0.283182 -0.0199627
-0.159009 -0.520762 -0.0129526
-0.0811397 -0.32783 -0.0116355
-0.0982857 -0.313197 -0.0187352
-0.124891 -0.449762 -0.0171479
-0.0855961 -0.339424 -0.0155216
-0.162847 -0.463378 -0.0189479
-0.0972968 -0.311705 -0.0159728
-0.138004 -0.487051 -0.0153029
2.90638e-030 3.7259e-031 -6.14807e-032
-0.632508 -0.112092 0.00804288
6.28382e-030 4.87114e-031 -1.05537e-031
2.77468e-029 1.77312e-030 -1.34966e-031
-0.358819 -0.0459402 0.00941018
-9.38264e-017 -7.35836e-018 3.25355e-018
1.30418e-016 6.02921e-018 -3.82965e-018
-0.347234 -0.040676 0.00812802
-0.362081 -0.0288127 0.00649343
-2.12891e-017 -7.27274e-019 7.5611e-019
-0.381357 -0.0984515 -0.0130408
-0.642731 -0.217028 -0.00865266
-0.685533 -0.105359 -0.00499021
-0.386463 -0.114391 -0.00499325
-0.532803 -0.159731 -0.0117086
-0.549355 -0.112077 -0.00969548
-0.388137 -0.110584 -0.00881845
-0.697138 -0.161799 -0.00925131
-0.54404 -0.171957 -0.00569886
-0.55939 -0.12162 -0.00545043
-0.59351 -0.0142809 0.000906597
3.12673e-030 4.30818e-032 -2.20887e-033
2.77049e-029 3.83133e-031 -1.21211e-031
1.27836e-029 1.96959e-031 -1.96211e-032
-0.321791 -0.00382621 0.00079864
-0.319234 -0.00659059 0.00240969
-0.3481 -0.00473129 0.00165914
-2.2933e-016 -2.1825e-018 1.83522e-018
-1.10452e-016 -4.19466e-019 8.90169e-019
-1.02755e-029 -2.1008e-029 4.71262e-029
-0.0550147 -0.372477 0.00368607
-0.0531273 -0.307894 0.00351573
-0.0817503 -0.352162 0.00438085
-0.0760601 -0.406833 0.00290414
-0.686239 -0.138415 -0.0222864
-0.37772 -0.0436322 -0.00613408
-0.55564 -0.187747 -0.0236328
-0.42525 -0.135708 -0.0157564
-0.640231 -0.239336 -0.014994
-0.568091 -0.0913279 -0.0151484
-0.503055 -0.189436 -0.00764478
-0.764526 -0.0114013 0.000482947
-3.49264e-017 2.3372e-020 7.04798e-020
-0.76616 -0.00967258 0.00231213
-0.481228 -0.00789094 0.00261924
-2.31086e-029 -3.00163e-029 5.91423e-029
-0.482004 -0.00617552 0.00390851
-0.437382 -0.00815231 0.00159122
-0.886338 -0.0136281 0.00232729
-0.559787 -0.00341761 0.00259321
5.05152e-030 9.85451e-032 3.62747e-033
-0.326297 -0.00684547 0.00135563
-7.39915e-017 -1.33559e-018 1.47083e-018
-9.77753e-017 -9.82741e-019 4.73376e-019
-1.04423 -0.0487831 0.00104667
-1.16328 -0.0390392 -0.00244586
-0.994569 -0.0270707 -2.46492e-005
-0.920781 -0.0222279 0.00186779
-1.16356 -0.0477872 -0.000379455
-1.06589 -0.0266551 -0.00119814
-1.11057 -0.0267803 0.000660491
1.86944e-017 -1.5781e-019 -2.96452e-019
-4.48428e-029 2.80881e-031 4.12775e-031
-1.67012e-029 3.18593e-032 8.86631e-032
0.43992 -0.00321649 -0.000883677
-2.8712e-017 2.75131e-019 4.01811e-019
1.24459e-029 -3.17753e-029 9.6112e-029
0.272471 -0.00227413 -0.0027745
-2.9691e-017 7.34367e-020 3.03261e-019
0.304457 -0.00286515 -0.00224805
0.275524 0.000366435 -0.00187102
8.5609e-032 -8.08966e-030 -6.55886e-031
-3.19e-031 -2.54592e-029 -1.6734e-030
-4.19154e-033 -2.97344e-030 -2.26082e-031
-0.00133874 0.134461 0.0100741
0.00217256 0.142614 0.0115783
-4.50488e-006 0.129844 0.00927994
-7.80301e-019 -7.43512e-017 -5.90112e-018
-9.32542e-020 2.8702e-017 2.44022e-018
-1.37282e-018 -6.10246e-017 2.77421e-018
0.0213264 0.745751 0.00510129
-0.0256235 0.547672 0.00692103
-0.0250093 0.61618 -0.0217717
-0.027126 0.659225 -0.00606056
-0.0073564 0.792011 0.00859756
-0.00379841 0.850657 -0.00989521
-0.00682082 0.868287 -2.88261e-005
-0.026782 0.634427 -0.00527912
-0.0265301 0.604337 0.00246227
-0.0274044 0.661415 -0.0154241
0.345651 0.136441 0.0186341
-2.45618e-029 -1.24128e-030 -1.25272e-031
0.423376 0.0102256 -0.00240725
0.379041 0.084182 0.00264977
0.231251 0.00475067 -0.000202218
0.391184 0.0242325 0.000263671
0.188105 0.00398427 0.00663088
0.386545 0.0407751 -0.00279354
0.253998 0.000502579 -0.00292266
-1.9541e-018 -2.56145e-017 -4.97394e-019
1.0497e-031 1.21326e-030 3.55948e-032
-0.00739374 -0.114631 -0.00194416
-0.00792838 -0.113213 -0.00208415
-4.14563e-018 -5.05992e-017 -1.05695e-018
-0.0158963 -0.124115 -0.00402278
-0.0147792 -0.120305 -0.00506557
-7.12752e-018 -2.85498e-017 7.102e-019
2.67975e-031 1.69417e-030 -2.2969e-032
-0.0300564 -0.128377 0.00263778
1.20621e-017 6.35865e-017 -7.96679e-019
2.0107e-029 -6.58925e-030 -1.32271e-031
-0.0206096 -0.127366 0.000608379
2.15885e-017 1.16855e-016 -1.05123e-018
-0.176623 -0.294374 0.00554966
1.39573e-030 1.98318e-030 -8.02563e-032
6.68467e-031 1.09959e-030 -4.04546e-032
5.00792e-031 8.89489e-031 -3.31343e-032
-0.109328 -0.16809 0.00687961
-0.10083 -0.164986 0.00625611
-0.097812 -0.169599 0.00611789
-5.05095e-017 -7.70576e-017 4.29495e-018
-3.16622e-016 -4.50596e-016 2.72387e-017
-1.95987e-016 -3.32886e-016 1.70516e-017
-1.05066e-031 -2.87207e-030 9.76071e-032
-1.46297e-031 -7.52042e-030 3.14847e-031
-4.98915e-031 -1.38191e-029 6.46296e-031
0.00835521 0.311833 -0.00792235
-2.78236e-018 -1.04939e-016 4.51009e-018
-4.72617e-019 -1.24437e-017 5.78472e-019
0.00539463 0.17631 -0.00528466
2.47156e-018 2.22012e-017 -1.19034e-018
0.00461419 0.199535 -0.00812867
0.00730116 0.203884 -0.00910257
-5.17029e-029 -4.88068e-031 9.23679e-031
-5.42403e-029 1.35099e-031 4.94282e-031
0.442739 -0.00554063 -0.000556489
2.36205e-017 1.16028e-019 -4.95503e-019
-2.577e-017 8.55398e-020 5.06358e-019
0.357528 -0.000495635 -0.00670621
-5.86994e-017 3.78203e-019 5.51606e-019
0.390775 0.000313713 -0.00462589
0.345497 -0.00387347 -0.00303617
6.36368e-020 1.02093e-018 5.78624e-020
0.00744488 0.448822 0.022422
-2.22558e-030 -6.70323e-029 -2.97637e-030
0.00872347 0.244022 0.0138793
-9.57767e-018 -7.30264e-017 -1.18292e-017
0.0205183 0.43008 0.015084
0.00818274 0.209174 0.0149824
0.0149447 0.641915 0.0181343
0.016478 0.430864 0.0199902
0.0223634 -0.0585289 -0.0252701
0.0197038 -0.00502262 -0.0197143
-0.119809 -0.211331 -0.021741
-0.124729 -0.0967242 -0.0305472
0.0195528 -0.0413183 -0.0246714
-0.0551352 -0.157289 -0.0264753
-0.0553971 -0.0986433 -0.0309293
-0.0402644 -0.0922418 -0.0204455
-0.0458699 -0.0490125 -0.0255356
-0.116249 -0.158143 -0.026727
-0.00197791 0.427066 0.0229104
0.00729374 0.469543 0.0234717
0.00750307 0.254641 0.0162859
0.00907592 0.652643 0.0202148
0.000661007 0.54827 -0.0169801
-0.0151225 0.622612 -0.00647641
-0.0145664 0.412078 -0.0188711
-0.000821716 0.58921 -0.0258807
-0.00743808 0.623852 -0.0123133
-0.00837845 0.51694 -0.01935
0.000325777 0.569454 -0.0222564
-0.016767 0.547356 -0.0139229
-0.00932722 0.645868 -0.0148742
-0.0108579 0.522603 -0.023387
1.74562e-017 5.6371e-017 3.80584e-018
5.37883e-017 1.50375e-018 -1.12561e-019
0.376773 0.44399 -0.0154575
0.282515 0.119985 -0.0201346
-2.6486e-017 -1.967e-018 4.15601e-029
0.254208 0.310998 -0.0126369
0.191472 0.119182 -0.0166794
0.285281 0.175911 -0.017379
0.219625 0.0618537 -0.0122648
0.36046 0.266098 -0.0218285
9.45007e-019 2.28802e-017 1.72613e-018
0.00231923 0.259266 0.0119764
2.05148e-031 -1.61327e-029 -6.76662e-031
-0.00184925 0.195762 0.00485277
0.00270777 0.116338 0.006881
1.67086e-018 3.36906e-017 4.19586e-018
0.000671245 0.105425 0.00418165
6.00805e-005 0.116207 0.0063719
-0.000647565 0.232914 0.00749533
-0.00112182 0.0920937 0.00355811
6.23913e-031 3.50508e-030 -5.83259e-032
-0.0413861 -0.343389 0.00231975
5.94933e-031 1.13548e-029 -1.20633e-031
9.97699e-031 5.16655e-030 -7.99564e-032
-0.0282516 -0.200773 0.00325899
-2.93336e-017 -2.56738e-016 5.01063e-018
2.23478e-029 -4.98791e-030 1.55802e-029
-0.0181799 -0.196193 0.0022974
-0.0264686 -0.187163 0.00151009
-2.37788e-017 -2.10101e-016 2.62809e-018
0.473702 -0.000265233 -9.99925e-005
-1.90151e-029 2.16336e-032 -5.49681e-033
-1.97615e-029 1.63143e-032 5.50175e-033
-3.36132e-029 4.66463e-032 7.03515e-033
0.324685 0.000172886 -5.07453e-005
0.326059 -0.000154398 -0.000239635
0.324075 -0.000209388 9.98985e-006
1.33679e-029 -6.71038e-020 1.06752e-019
1.21083e-029 -1.69414e-020 -1.62882e-021
2.39694e-017 -1.34073e-020 -1.38943e-030
0.181564 0.667736 -0.0311858
-0.0151276 0.827138 -0.00851017
-0.0195216 0.780953 -0.0576782
0.0334237 0.734223 0.00597625
0.0818968 0.851812 -0.0286613
0.0590431 0.761264 -0.0493847
0.12684 0.795409 -0.0242413
-0.0215853 0.911075 -0.0373067
0.0474457 0.839681 -0.00291904
0.0378894 0.909683 -0.0332328
-7.0854e-029 8.67184e-032 3.96481e-032
-4.19084e-029 8.7295e-032 1.15479e-031
-5.18789e-029 3.67364e-031 -3.09473e-033
0.436852 -0.00344024 -0.00024087
1.85243e-017 -3.20449e-022 -1.05404e-019
1.84079e-017 -2.27602e-022 -7.99659e-022
0.347877 4.52014e-005 -0.00140284
8.52787e-019 1.04367e-028 3.43135e-030
0.311908 0.000392763 -0.00122895
0.353651 -0.00207074 0.00020934
7.75808e-030 4.45808e-030 -1.62139e-031
-0.36828 -0.216567 0.00806207
2.64809e-030 1.53652e-030 -7.03248e-032
-0.252879 -0.159357 0.00664729
-0.246581 -0.130147 0.00523621
5.43516e-016 3.61365e-016 -1.9841e-017
-0.424403 -0.208788 0.00619067
-0.223826 -0.143443 0.00806386
-0.23692 -0.127851 0.00522278
-0.790725 0.000406849 0.00552525
1.69292e-028 -1.62674e-031 -2.39e-031
1.26647e-029 -7.32489e-032 -1.56405e-031
-0.789403 0.00450987 0.00263389
-0.525566 0.0020704 0.00247213
-0.474662 -0.000727052 0.00593454
-0.872708 0.00342446 0.00317959
-2.19177e-029 3.28022e-029 6.10709e-029
-0.447151 0.00374871 0.00158184
-0.478423 0.00578051 0.00321754
-3.40946e-029 3.53799e-031 2.77713e-031
-1.25585e-029 1.95723e-031 1.61534e-031
-1.95045e-029 -6.88216e-031 1.55135e-031
-4.3489e-017 1.70808e-018 4.03821e-019
-1.13127e-018 1.68725e-020 4.03386e-020
0.280497 -0.00275976 -0.00213469
-1.55648e-017 3.58203e-019 5.9078e-019
0.259516 -0.00502278 -0.00211762
0.270223 0.00281602 -0.011158
-7.40274e-029 9.98493e-031 -1.13771e-031
0.355532 -0.00524402 -0.000285398
0.298157 -0.0070383 0.00099485
0.322296 -0.00569954 0.000535975
0.489581 -0.00593613 -0.000634571
0.504772 -0.00424453 -0.000305788
0.445664 -0.00700821 -0.000828247
-1.62865e-029 -7.53295e-032 3.68693e-035
-3.0585e-029 4.13982e-031 -9.2297e-033
5.11093e-017 -2.21736e-018 -2.60439e-019
4.44497e-017 -1.73784e-018 -3.04708e-019
0.261911 -0.00330241 -0.000664357
4.00165e-018 -1.79353e-019 -4.59857e-020
0.269148 -0.00407122 -0.0027286
-5.68017e-029 1.55336e-031 2.16785e-031
0.436325 0.00158529 -0.000602698
-3.78607e-029 9.28724e-032 9.45879e-032
0.270856 -0.0012386 -0.000695914
-9.17937e-017 2.96434e-020 6.33539e-019
0.34578 -0.002184 -0.00167054
0.281861 0.000116388 -0.000712526
0.457249 -0.000926859 -0.000699774
0.297433 0.00100006 -0.00206566
-1.52788e-029 1.11817e-031 -1.24981e-031
-4.48712e-029 1.44442e-032 -2.96838e-031
-5.22622e-029 2.96053e-031 -2.50453e-031
3.1575e-017 -5.01296e-019 7.99625e-019
-3.39883e-017 5.81815e-019 -7.59107e-019
0.273989 -0.00355239 0.00548023
-2.21814e-017 3.20231e-019 -3.69968e-019
0.284723 -0.00279425 0.00373331
0.28466 -0.00321613 0.00271331
1.42415e-030 -8.56577e-030 3.02733e-031
-0.174307 0.126493 -0.0170647
1.88693e-030 -4.00908e-030 4.05316e-031
0.0688068 0.240239 -0.0191013
-0.0592751 0.0891613 -0.00464955
-1.40079e-017 -4.50095e-018 -2.236e-020
0.00666825 0.145851 -0.00505986
-0.066431 0.0458168 -0.00410884
-0.0682853 0.198194 -0.0158817
-0.00524171 0.0830411 -0.00571399
-6.24484e-030 -3.05207e-030 -6.20441e-031
-4.97603e-029 -6.8101e-030 -3.83758e-031
-8.35928e-030 -1.70873e-029 2.68196e-031
0.197949 0.0364648 0.0286275
0.233682 0.0766915 0.01473
0.243995 0.174563 0.0411909
2.66639e-030 5.13667e-029 -3.19638e-029
5.34114e-017 4.65034e-017 9.90676e-018
-6.72143e-017 -4.03556e-017 -1.02753e-017
-1.98661e-029 -1.35547e-032 -2.75579e-032
-1.27224e-017 3.8292e-019 -7.11204e-020
4.91867e-017 -1.55868e-018 -2.39584e-020
0.288862 -0.00179066 0.00135628
-0.093038 -0.279268 0.00248174
1.57502e-030 3.31628e-030 -4.36447e-032
-0.148259 -0.272559 -0.00366029
3.49712e-030 8.20639e-030 3.65612e-032
-0.0601182 -0.142162 0.00326324
-0.124778 -0.284872 -0.000646571
-0.0603796 -0.150186 0.00211551
-0.0830764 -0.155795 0.001314
9.98032e-018 1.98476e-017 -3.52425e-019
-0.0724911 -0.142438 -0.000268408
-0.269635 -0.325395 -0.021086
-0.248616 -0.474081 -0.0173316
-0.114314 -0.189061 -0.0113856
-0.206839 -0.282723 -0.0249268
-0.267431 -0.413383 -0.0195203
-0.187236 -0.277755 -0.0176521
-0.209608 -0.366784 -0.0239398
-0.126921 -0.210527 -0.0144078
-0.200696 -0.368543 -0.0185748
0.434844 0.00134381 0.000103174
-8.91562e-029 -2.232e-031 3.11149e-031
-3.67235e-029 -1.66432e-031 4.53652e-032
0.446404 0.00181482 -0.000667144
0.286858 0.00212343 -0.000725167
0.2717 0.00222626 0.000603653
0.453224 0.00229501 -0.00088406
3.90998e-029 -8.28741e-030 -1.0396e-028
0.374189 -0.00135885 -0.00143185
0.330193 -0.000351268 -0.000282782
-1.61238e-029 1.64064e-032 1.40969e-032
-4.25499e-029 1.22857e-032 -1.4434e-032
-7.92307e-029 1.5578e-032 3.15471e-032
1.229e-029 4.69354e-029 8.2719e-029
0.275905 -0.000299522 -0.000233544
6.04323e-017 2.4713e-019 -1.54969e-020
0.30182 0.000667373 0.000520553
-2.84164e-017 -8.78571e-020 1.21803e-020
0.275499 4.66701e-005 -0.000293288
-2.40422e-029 3.87098e-032 -2.14182e-032
-4.65419e-029 3.93201e-032 -9.45616e-032
0.470365 -0.000480074 0.000161671
-8.02677e-029 1.1247e-031 -1.86742e-031
7.86589e-017 -1.58481e-019 3.56286e-019
0.360622 -0.000698941 0.000604976
-6.20866e-017 3.18315e-019 -1.45807e-019
0.370167 -0.000539639 0.00172071
2.93895e-017 5.55527e-020 1.9011e-019
0.351324 -0.00198544 0.000595515
0.433663 0.00118512 -0.000604992
-8.89228e-029 7.22548e-033 9.41869e-032
0.497312 0.000229927 -3.85423e-005
0.321306 0.000342763 -0.000458579
0.437032 0.00189718 0.000408153
0.35054 -0.00125612 0.001015
0.50262 0.00177928 -0.000821582
0.356886 0.000846765 -0.000298835
1.20808e-029 1.3137e-031 -7.73168e-032
-0.330491 -0.00555245 0.00405883
7.56727e-017 3.04391e-018 -1.01653e-018
-0.439555 -0.00504896 0.00406627
-0.712061 -0.0113757 0.00327363
1.02526e-030 -4.00986e-029 2.25386e-030
1.29901e-031 -7.32262e-029 4.02611e-030
-0.00788558 0.450885 -0.0252993
-2.51744e-005 0.446062 -0.0258376
-0.0099138 0.312067 -0.0189619
1.07726e-018 -5.61719e-017 3.75242e-018
-0.00632875 0.361142 -0.0216818
0.000684367 0.593294 0.00546599
0.0130788 0.341511 0.00723394
0.00440883 0.566405 -0.000863766
0.000273277 0.45297 0.00555836
0.00995549 0.507652 0.00788661
0.00380149 0.583411 0.0016679
0.000518765 0.530764 0.00653807
0.00884587 0.486985 0.00352434
0.00584676 0.429618 0.00658809
0.00236357 0.538111 0.00328317
0.00803824 0.33599 0.0113873
0.00201851 0.469561 0.0125612
0.00107739 0.367833 0.0084206
7.87308e-029 1.43597e-030 4.54603e-031
1.31898e-028 2.74218e-030 6.64167e-031
2.37057e-029 2.86787e-031 8.15981e-032
-0.595526 -0.00770319 -0.00247836
-0.561732 -0.00916911 -0.004567
-0.562005 -0.00974446 -0.00262408
-1.28909e-016 1.85108e-019 -1.33266e-018
-1.52711e-016 -2.80731e-018 -9.90203e-019
-1.45207e-016 -3.13281e-018 -1.45397e-018
6.30054e-031 2.20451e-030 -4.98827e-032
-0.144649 -0.393781 -5.82258e-005
3.52802e-030 1.59912e-029 9.59494e-033
1.32064e-030 5.95829e-030 -1.08115e-031
-0.0825617 -0.287591 0.00566241
4.47472e-030 -3.70643e-030 -2.66655e-029