# vtk DataFile Version 2.0 
output.vtk, Created by Freefem++, via gregorio
ASCII
DATASET UNSTRUCTURED_GRID
POINTS 7451 double
-3.79965 2.23652 0.040848
-4.13429 2.05574 0.276253
-4.09122 2.24524 0.070091
-4.01836 2.27766 0.330071
-3.96697 2.14613 0.158551
-3.94543 2.24088 0.0554695
-3.90901 2.25709 0.185459
-4.11275 2.15049 0.173172
-4.07633 2.1667 0.303162
-4.05479 2.26145 0.200081
-4.81817 0.732763 -0.840268
-4.76136 0.37264 -0.736193
-5.12328 0.495929 -0.550642
-4.73872 0.559667 -0.434419
-4.78977 0.552702 -0.788231
-4.97072 0.614346 -0.695455
-4.77845 0.646215 -0.637344
-4.94232 0.434285 -0.643417
-4.75004 0.466153 -0.585306
-4.931 0.527798 -0.49253
-7.58244 -0.891248 -0.453516
-8 -0.559587 0.124298
-7.26059 -0.264226 0.250847
-7.58828 -0.999993 0.00381
-7.79122 -0.725418 -0.164609
-7.42152 -0.577737 -0.101334
-7.58536 -0.94562 -0.224853
-7.6303 -0.411906 0.187573
-7.79414 -0.77979 0.064054
-7.42444 -0.632109 0.127328
-5.46564 0.048234 0.998836
-5.51396 -0.351144 0.936321
-5.02851 -0.125769 0.598961
-5.56665 -0.148801 0.504295
-5.4898 -0.151455 0.967578
-5.24708 -0.0387675 0.798898
-5.51614 -0.0502835 0.751565
-5.27124 -0.238457 0.767641
-5.5403 -0.249972 0.720308
-5.29758 -0.137285 0.551628
-4.20269 -2.80441 0.102764
-3.63085 -2.57461 -0.287529
-4.13183 -2.29387 0.255347
-4.14432 -2.47254 -0.273935
-3.91677 -2.68951 -0.0923825
-4.16726 -2.54914 0.179055
-4.1735 -2.63848 -0.0855855
-3.88134 -2.43424 -0.016091
-3.88759 -2.52358 -0.280732
-4.13807 -2.38321 -0.009294
-6.25062 -0.085247 0.575431
-6.51584 -0.423084 -0.15939
-6.46019 0.447486 0.293263
-6.75561 -0.174737 0.413139
-6.38323 -0.254165 0.20802
-6.35541 0.181119 0.434347
-6.88822 -0.343655 0.0457285
-6.86039 0.09163 0.272055
-6.48801 0.012201 0.0669365
-4.88162 0.371746 0.655425
-4.51246 -0.112716 0.623981
-4.65723 0.09269 0.995695
-4.69704 0.129515 0.639703
-4.95507 0.122989 0.627193
-4.76942 0.232218 0.82556
-4.77049 -0.119243 0.611471
-4.58484 -0.010013 0.809838
-4.84287 -0.0165395 0.797328
-3.75099 1.20677 0.090288
-3.64118 0.745776 0.266863
-4.09568 0.790235 0.315934
-3.78936 1.07086 0.69071
-3.69609 0.976272 0.178575
-3.92333 0.998502 0.203111
-3.77017 1.13882 0.390499
-3.86843 0.768006 0.291399
-3.71527 0.908319 0.478787
-3.94252 0.930549 0.503322
-2.18572 0.40145 0.915881
-1.75478 0.245881 0.526965
-1.94554 -0.013967 0.999902
-1.76886 0.356252 0.93439
-1.97025 0.323665 0.721423
-2.06563 0.193741 0.957891
-1.97729 0.378851 0.925135
-1.85016 0.115957 0.763433
-1.76182 0.301067 0.730678
-1.8572 0.171143 0.967146
-5.06116 0.824959 0.710182
-4.88551 0.773989 0.80113
-4.92155 0.772883 0.437198
-5.01596 0.602336 0.857802
-4.97333 0.799474 0.755656
-4.99135 0.798921 0.57369
-5.03856 0.713647 0.783992
-4.90353 0.773436 0.619164
-4.95074 0.688163 0.829466
-4.96876 0.687609 0.6475
-2.34262 2.51752 0.051733
-2.4672 2.85727 -0.311185
-2.29554 2.81673 0.086134
-2.65762 2.74748 0.16058
-2.40491 2.6874 -0.129726
-2.31908 2.66712 0.0689335
-2.50012 2.6325 0.106157
-2.38137 2.837 -0.112526
-2.56241 2.80238 -0.0753025
-2.47658 2.7821 0.123357
-3.50303 -3.76846 -0.636668
-3.49422 -3.29308 -1.15018
-3.31427 -3.71149 -1.25136
-2.90724 -3.34218 -0.858121
-3.49863 -3.53077 -0.893424
-3.40865 -3.73997 -0.944014
-3.20514 -3.55532 -0.747394
-3.40425 -3.50228 -1.20077
-3.20073 -3.31763 -1.00415
-3.11076 -3.52683 -1.05474
-4.0054 2.49156 -0.125899
-3.5956 2.50054 -0.194198
-3.83412 2.54803 0.0159
-3.8005 2.49605 -0.160049
-3.90253 2.36404 -0.0425255
-3.91976 2.5198 -0.0549995
-3.69763 2.36853 -0.076675
-3.71486 2.52428 -0.089149
-3.81689 2.39228 0.028374
-3.73452 -3.68531 -1.05781
-3.52439 -3.6984 -1.15459
-3.61437 -3.4892 -1.104
-3.61877 -3.72688 -0.84724
-6.37864 0.944563 0.328331
-6.25891 0.813305 0.581838
-6.65332 0.772267 0.635298
-6.31878 0.878934 0.455085
-6.41941 0.696025 0.310797
-6.51598 0.858415 0.481815
-6.35955 0.630395 0.43755
-6.45612 0.792786 0.608568
-6.55675 0.609877 0.46428
1.62066 -0.841518 -0.540229
1.89324 0.238579 -0.195511
2.01627 -0.690819 -0.723027
2.25185 -0.211859 0.261412
1.75695 -0.30147 -0.36787
1.81846 -0.766169 -0.631628
1.93625 -0.526689 -0.139408
1.95475 -0.22612 -0.459269
2.07254 0.01336 0.0329505
2.13406 -0.451339 -0.230807
-2.56949 2.06853 0.305158
-2.91403 1.60744 0.564909
-3.02709 2.08175 0.021586
-2.87501 2.07662 0.630995
-2.74176 1.83799 0.435033
-2.79829 2.07514 0.163372
-2.72225 2.07258 0.468077
-2.97056 1.8446 0.293247
-2.89452 1.84203 0.597952
-2.95105 2.07919 0.32629
-5.39985 0.358755 0.933432
-5.34934 0.453264 0.543553
-5.56264 0.558471 0.829524
-5.70805 0.297641 0.954678
-5.37459 0.40601 0.738492
-5.48124 0.458613 0.881478
-5.55395 0.328198 0.944055
-5.45599 0.505868 0.686538
-5.52869 0.375452 0.749116
-5.63535 0.428056 0.892101
-4.17913 0.323834 -0.696515
-4.36183 0.516245 -0.417662
-4.60784 0.019305 -0.528365
-4.46586 0.364911 -0.72315
-4.27048 0.42004 -0.557088
-4.39349 0.17157 -0.61244
-4.3225 0.344372 -0.709832
-4.48483 0.267775 -0.473013
-4.41384 0.440578 -0.570406
-4.53685 0.192108 -0.625757
-5.9377 0.438799 -0.558905
-5.87927 0.529091 -0.848565
-6.25926 0.555743 -0.831354
-6.07929 0.245277 -0.969453
-5.90849 0.483945 -0.703735
-6.09848 0.497271 -0.695129
-6.00849 0.342038 -0.764179
-6.06927 0.542417 -0.839959
-5.97928 0.387184 -0.909009
-6.16928 0.40051 -0.900404
-3.64743 2.72944 0.180305
-3.74077 2.63873 0.0981025
-3.72354 2.48298 0.110576
-3.62151 2.61499 -0.0069465
-3.98168 0.388062 0.141859
-3.76543 0.320245 0.603448
-3.81143 0.566919 0.204361
-3.70331 0.533011 0.435156
-4.03868 0.589149 0.228897
-3.87356 0.354154 0.372653
-3.93055 0.55524 0.459691
-6.17342 0.027823 -0.593282
-6.59748 0.255766 -0.966739
-6.35964 0.547779 -0.240473
-6.21634 0.291783 -0.712318
-6.42837 0.405755 -0.899047
-6.30945 0.551761 -0.535914
-6.38545 0.141794 -0.78001
-6.26653 0.287801 -0.416878
-6.47856 0.401772 -0.603606
-5.98474 0.742767 -0.66955
-5.96122 0.590783 -0.614227
-6.122 0.649255 -0.750452
-5.93201 0.635929 -0.759057
-5.86659 0.345457 -0.129882
-5.96054 -0.099592 -0.035866
-6.02 0.18664 -0.361582
-6.11312 0.446618 -0.185177
-5.91357 0.122933 -0.082874
-6.06698 -0.0358845 -0.314574
-6.16009 0.224094 -0.13817
-1.10421 0.363269 -0.931684
-0.773878 0.737644 -0.67519
-0.520452 0.269543 -0.962988
-0.384634 0.008888 -0.353445
-0.939043 0.550457 -0.803437
-0.812329 0.316406 -0.947336
-0.74442 0.186079 -0.642564
-0.647165 0.503594 -0.819089
-0.579256 0.373266 -0.514317
-0.452543 0.139215 -0.658216
-2.85287 -3.00249 -1.21636
-3.23054 -2.92385 -1.196
-3.06719 -3.3306 -1.25351
-2.88006 -3.17233 -1.03724
-3.06889 -3.13301 -1.02706
-2.98722 -3.33639 -1.05581
-3.0417 -2.96317 -1.20618
-2.96003 -3.16654 -1.23493
-3.14886 -3.12722 -1.22475
-3.38618 -2.05134 -0.098565
-2.37808 -2.56123 -0.134541
-2.49252 -2.47812 0.422472
-2.41131 -1.89586 0.044632
-2.88213 -2.30628 -0.116553
-2.93935 -2.26473 0.161954
-2.89875 -1.9736 -0.0269665
-2.4353 -2.51967 0.143966
-2.39469 -2.22855 -0.0449545
-2.45192 -2.18699 0.233552
-1.85713 -0.413967 0.42138
-1.65927 -0.390905 0.920431
-1.2503 -0.077569 0.384148
-1.80595 -0.084043 0.474172
-1.70702 -0.072512 0.723698
-1.50254 0.084156 0.455557
-1.7582 -0.402436 0.670905
-1.55371 -0.245768 0.402764
-1.45478 -0.234237 0.652289
-2.09043 2.55218 0.167395
-2.0659 2.66009 -0.048555
-2.19298 2.68445 0.126765
-2.18072 2.73841 0.0187895
-2.07816 2.60614 0.05942
-2.21652 2.53485 0.109564
-2.20426 2.58881 0.001589
-4.01665 2.44382 0.136481
-3.97233 2.67361 0.084512
-3.92539 2.49592 0.0761905
-3.99449 2.55872 0.110496
-4.01103 2.46769 0.005291
-3.90323 2.61082 0.050206
-3.98887 2.58259 -0.0206935
-3.92754 1.80484 -0.220103
-4.28096 1.83407 -0.225431
-4.13592 1.88983 -0.461486
-4.146 2.03152 -0.278406
-4.10425 1.81945 -0.222767
-4.03173 1.84734 -0.340795
-4.03677 1.91818 -0.249254
-4.20844 1.86195 -0.343458
-4.21348 1.9328 -0.251918
-4.14096 1.96068 -0.369946
-4.04038 -5 0.949212
-3.62468 -5 1.26221
-3.84559 -4.54287 1.07336
-3.71487 -5 0.728948
-3.83253 -5 1.10571
-3.94299 -4.77144 1.01129
-3.87763 -5 0.83908
-3.73513 -4.77144 1.16779
-3.66977 -5 0.99558
-3.78023 -4.77144 0.901156
-1.37334 0.812082 -0.583544
-0.975724 0.961208 -0.275823
-1.19336 -0.166381 -0.273753
-1.17453 0.886645 -0.429683
-1.07361 0.774863 -0.629367
-1.28335 0.32285 -0.428648
-0.874801 0.849426 -0.475506
-1.08454 0.397413 -0.274788
-0.983618 0.285631 -0.474471
-3.83515 -1.82017 -0.741539
-3.34976 -1.58414 -0.592596
-3.50394 -2.07825 -1.02313
-3.59245 -1.70215 -0.667067
-3.66955 -1.94921 -0.882335
-3.61067 -1.93575 -0.420052
-3.42685 -1.83119 -0.807863
-3.36797 -1.81774 -0.345581
-3.44506 -2.06479 -0.560848
-2.72946 0.769161 0.094533
-2.75119 0.681139 -0.326037
-2.98528 1.02631 -0.281501
-3.08113 0.734324 -0.34324
-2.74032 0.72515 -0.115752
-2.85737 0.897737 -0.093484
-2.90529 0.751742 -0.124353
-2.86823 0.853726 -0.303769
-2.91616 0.707731 -0.334639
-3.03321 0.880319 -0.31237
-2.94023 -2.47675 -0.674772
-3.14499 -2.03044 -0.633684
-3.22209 -2.2775 -0.848951
-3.16321 -2.26404 -0.386669
-3.03914 -4.25341 0.579285
-2.64287 -3.80807 0.20828
-2.47531 -4.18593 0.714333
-2.97264 -3.41482 0.618231
-2.84101 -4.03074 0.393783
-2.75723 -4.21967 0.646809
-3.00589 -3.83412 0.598758
-2.55909 -3.997 0.461307
-2.80776 -3.61144 0.413255
-2.72397 -3.80037 0.666282
-2.39684 -0.595487 -0.803365
-1.98884 -0.54749 -0.836812
-2.24172 -0.466498 -0.098067
-2.21295 -0.01831 -0.514797
-2.19284 -0.571489 -0.820088
-2.31928 -0.530992 -0.450716
-2.3049 -0.306899 -0.659081
-2.11528 -0.506994 -0.46744
-2.1009 -0.2829 -0.675804
-2.22734 -0.242404 -0.306432
-3.36239 -4.55484 -1.31864
-3.11171 -4.25429 -0.873787
-2.86199 -4.55394 -1.36046
-2.79118 -5 -0.96439
-3.23705 -4.40456 -1.09621
-3.11219 -4.55439 -1.33955
-3.07678 -4.77742 -1.14151
-2.98685 -4.40411 -1.11712
-2.95144 -4.62714 -0.919088
-2.82658 -4.77697 -1.16243
-3.88203 2.65205 -0.416886
-3.48121 2.84727 -0.340672
-3.82273 3 -0.474998
-3.72541 2.76868 -0.627028
-3.68162 2.74966 -0.378779
-3.85238 2.82603 -0.445942
-3.80372 2.71037 -0.521957
-3.65197 2.92364 -0.407835
-3.60331 2.80798 -0.48385
-3.77407 2.88434 -0.551013
[...]
POINT_DATA 7451
 
FIELD FieldData 2
velocity 3 7451 double
-0.43147 -1.23044 0.0039111
6.08734e-030 1.41008e-029 -3.97459e-031
2.15786e-030 5.97052e-030 -3.51542e-032
5.18529e-030 1.39663e-029 -3.98369e-031
-0.367612 -0.918688 0.02061
-0.349923 -0.973784 0.00450564
-0.37251 -1.04014 0.0324113
-9.92199e-018 -2.52548e-017 4.5794e-019
2.81364e-017 6.93475e-017 -3.00393e-018
7.45341e-030 -6.73132e-030 -1.97126e-030
1.41428e-029 7.48354e-030 4.94157e-031
-0.60335 -0.29591 -0.0158827
-0.864648 -0.263804 -0.0140055
-0.923278 -0.445866 -0.0105183
-0.400149 -0.236013 -0.0148787
-0.518298 -0.237281 -0.021907
-0.664729 -0.364555 -0.0251235
-0.763258 -0.301584 -0.00700671
-0.811958 -0.377252 -0.0106502
-0.907049 -0.371202 -0.0166521
1.21941e-028 3.05504e-031 3.49254e-031
-1.02892 0.00386359 -0.000842064
-1.17707 -0.00247234 -0.000286373
7.36598e-029 3.68961e-032 1.89017e-031
-0.753389 -0.00397003 -0.00559353
-1.08371 -0.00560247 -0.00666451
-1.95126e-016 -6.81315e-019 -1.35837e-018
-1.16149 -0.0020662 -0.00124813
-0.688514 0.00279368 -0.00622607
-0.993764 -0.000832589 -0.00384397
4.33901e-029 5.95895e-030 6.24713e-032
2.92693e-029 2.67132e-030 7.10796e-031
-0.819634 -0.129422 -0.0115751
-1.0256 -0.0781357 -0.00515982
-2.31138e-016 -2.23777e-017 -6.84852e-018
-0.589567 -0.104411 -0.0121166
-0.729242 -0.0743577 -0.0108097
-0.57049 -0.0629383 -0.0202067
-0.708453 -0.0493021 -0.0184637
-0.937939 -0.104297 -0.00325785
-8.48363e-032 -8.73229e-030 3.75875e-032
0.00940957 0.207366 0.00363675
-1.17952e-031 -1.04087e-029 1.33131e-031
2.54689e-031 1.53749e-030 1.22148e-031
-0.00305415 0.00648534 0.00161907
8.81575e-018 1.02007e-016 -3.32265e-018
1.84959e-018 1.91278e-017 4.67423e-019
-0.00189835 0.0176178 0.000350475
-0.0073224 -0.0587681 -0.003612
2.23934e-017 2.32904e-016 8.16891e-018
-1.00476 -0.0245123 -0.0054241
-1.10317 -0.0131143 0.0015244
-1.07019 -0.0199034 -0.002643
-1.1894 -0.0122322 -0.00446031
-1.26841 -0.0236732 -0.0034266
-1.15481 -0.0252541 -0.0055112
-1.22959 -0.00551862 -5.06415e-005
-1.30311 -0.0108334 -0.00473952
-1.40286 -0.0241254 -0.00207906
-0.757231 -0.285255 0.0131024
-0.631729 -0.195845 -0.0239423
2.38838e-029 1.02498e-029 1.42769e-031
-0.761158 -0.271621 -0.00154721
-0.844661 -0.218727 -0.000710959
-0.450851 -0.244379 0.0118083
-0.744889 -0.161907 -0.0140329
-0.446948 -0.223145 -0.0223499
-0.526713 -0.177373 -0.0143063
-0.649893 -1.10221 -0.005713
-0.485084 -0.857019 -0.004613
-0.767151 -0.751038 0.00496642
-0.475643 -0.778774 0.00912833
-0.576773 -0.986324 -0.0129301
-0.714029 -0.914893 0.0100858
-0.614612 -1.01005 -7.88478e-006
-0.651374 -0.81174 0.0102212
-0.5202 -0.90663 -0.0126085
-0.611584 -0.830197 0.00457204
-2.6645e-029 5.30115e-030 -2.07324e-030
0.424321 -0.0274052 0.0103794
-2.6063e-029 3.89935e-030 -2.70979e-031
-6.53072e-030 8.91753e-031 -3.68926e-031
0.296108 -0.0567986 0.0250818
9.94942e-017 -4.71994e-017 2.94084e-018
5.83097e-018 -1.21517e-018 5.85411e-019
0.293765 -0.051474 0.00611144
0.301295 -0.0371883 0.0187851
-1.11454e-016 2.18192e-017 -5.73624e-018
5.10646e-017 2.76193e-017 -3.61872e-018
4.5916e-030 2.5852e-030 -2.24826e-031
-0.78915 -0.376227 0.0203087
4.73357e-030 2.40529e-030 -2.31538e-031
2.55418e-017 1.4953e-017 -2.00823e-018
-0.523106 -0.270282 0.0281665
1.88494e-016 1.60247e-016 -2.00756e-017
-0.523348 -0.299464 0.0332422
2.88588e-016 1.85747e-016 -1.87883e-017
-0.539488 -0.278674 0.027194
-0.136648 -0.929925 -0.00329353
-0.0746762 -1.07568 -0.0301984
-0.0462927 -0.963412 0.0101521
-0.139753 -1.27502 0.00449262
-0.100237 -1.0801 -0.0022985
-0.0919205 -0.939414 0.00519371
-0.138177 -1.14531 0.00373889
-0.0605926 -1.1078 -0.00641168
-0.110652 -1.26915 0.00227035
-0.100883 -1.19054 0.0134593
0.0048048 0.136795 0.00403106
3.64194e-031 1.48824e-030 5.37897e-031
3.34137e-031 4.73158e-030 5.40177e-031
0.000290324 0.0783799 0.000350952
-0.00484652 -0.0626378 -0.0116433
-0.00447184 -0.0656977 -0.00747193
-0.00258225 0.13837 0.00296898
5.87784e-031 -5.98582e-030 2.45428e-030
-0.0067439 -0.0816836 -0.0071585
-0.0090278 -0.0937981 -0.00721463
4.51575e-030 1.73125e-029 5.48164e-032
-0.31133 -1.349 -0.00413355
-0.235106 -1.07742 -0.0135435
-0.285745 -1.1758 0.00345552
-0.307107 -0.993985 -0.00998831
-0.163497 -0.675846 -0.0133276
-0.383461 -1.33588 -0.004148
-0.309379 -1.35197 -0.00970348
-0.34069 -1.18133 -0.00720291
1.18733e-031 2.69765e-030 3.049e-031
5.52817e-018 1.09495e-016 1.07426e-017
-5.0075e-018 -9.47669e-017 -1.11815e-017
-0.00463632 -0.0938926 -0.0128804
1.48135e-029 3.30733e-031 -2.69905e-033
1.94135e-029 4.79045e-031 -4.87742e-032
2.52302e-029 4.68155e-031 1.6844e-031
1.17594e-016 3.36019e-018 -3.40824e-019
-0.767878 -0.0225635 0.00043917
-1.13279e-029 -4.82025e-030 -2.34473e-030
-0.747635 -0.0154032 0.00108089
-3.04209e-017 2.4467e-018 2.92118e-019
-0.757352 -0.0120687 -0.00449417
-1.66898e-028 6.58169e-031 -5.03689e-032
0.481386 -2.70196e-007 0.000173041
-6.4123e-029 2.78038e-031 -1.69442e-031
0.464557 -0.00127092 0.00123345
0.478103 -0.00376524 0.000931645
-8.60761e-017 7.45306e-019 -2.61829e-019
0.449758 -0.00310837 0.000841683
0.471073 -0.00189541 0.00246893
0.534289 -0.000203021 0.000639218
0.47397 -0.00351412 0.00187831
-0.268042 -1.01172 -0.0186756
-0.371989 -0.959704 -0.0594374
-0.388895 -1.34423 -0.00592149
-0.296187 -1.02552 -0.0206992
-0.342597 -1.06486 -0.0409171
-0.340404 -1.26176 -0.0138193
-0.298639 -1.0893 -0.0225425
-0.413282 -1.27829 -0.0170349
-0.347067 -1.00485 -0.0404253
-0.36128 -1.3178 -0.0145451
4.74016e-030 8.56e-031 -1.96897e-031
-0.906041 -0.182998 0.0207748
1.01092e-029 1.09198e-030 -3.59089e-031
4.02452e-029 3.72672e-030 -4.90291e-031
-0.590293 -0.100103 0.0307296
-1.72024e-016 -2.30242e-017 1.12029e-017
2.33769e-016 2.55735e-017 -1.33954e-017
-0.577393 -0.0870494 0.0261997
-0.588038 -0.0707425 0.0212196
-3.91614e-017 -4.04021e-018 2.49606e-018
-0.489883 -0.416302 -0.020731
-0.832632 -0.540153 -0.00860756
-0.803311 -0.246045 0.00783309
-0.563139 -0.369059 -0.0188763
-0.684851 -0.480996 -0.00788568
-0.66649 -0.343088 -0.00483014
-0.532014 -0.395379 -0.0185664
-0.846261 -0.382967 -0.00659207
-0.736834 -0.449652 -0.0132515
-0.719034 -0.326197 -0.00953448
-0.847025 -0.0389116 -0.00858046
5.16705e-030 2.22883e-031 8.90396e-032
4.07705e-029 1.20638e-030 -2.91905e-032
1.96841e-029 8.11546e-031 5.52828e-032
-0.534092 -0.0206941 -0.00827841
-0.516901 -0.0231363 0.00135381
-0.556175 -0.02556 -0.0030703
-4.17986e-016 -1.62367e-017 -1.75484e-018
-1.97366e-016 -7.93255e-018 -3.13459e-018
-1.65204e-029 -3.36024e-030 5.90335e-030
-0.208016 -1.3114 0.00229381
-0.226502 -1.2681 -0.00504353
-0.311277 -1.3352 -0.00288132
-0.270106 -1.42573 -0.00706268
-0.748616 -0.546501 0.000935263
-0.370213 -0.425262 0.0360073
-0.622135 -0.691875 -0.00449198
-0.445488 -0.667328 0.0134417
-0.769769 -0.678003 0.00897273
-0.60035 -0.521762 0.0248271
-0.609416 -0.660119 0.016585
-0.997804 -0.027752 0.00215099
-5.5195e-017 -1.55452e-019 9.92098e-021
-1.00465 -0.0205202 -0.000388507
-0.723412 -0.0307749 0.00262792
-3.883e-029 -4.40223e-030 6.69448e-030
-0.742011 -0.0183764 0.00663929
-0.658755 -0.0221752 0.0051232
-1.1289 -0.0319094 0.00176036
-0.815556 -0.0149297 0.00304045
8.295e-030 3.3352e-031 1.81221e-031
-0.542875 -0.0246868 -0.00678841
-1.34981e-016 -6.01801e-018 -5.082e-019
-1.81855e-016 -7.21492e-018 -2.99911e-018
-1.29613 -0.0776051 -0.00343034
-1.35802 -0.0588157 -0.000209717
-1.23214 -0.0509313 -0.00231123
-1.1773 -0.0418761 -0.002029
-1.38809 -0.0730015 -0.000459253
-1.28946 -0.0478375 0.0001248
-1.34446 -0.0438268 0.00121137
2.84247e-017 -1.36139e-018 -3.36951e-020
-6.03404e-029 1.21587e-030 3.58992e-031
-2.35306e-029 1.20758e-031 7.46553e-032
0.482672 -0.00406966 -0.00026611
-4.29903e-017 1.72185e-018 -1.25191e-019
1.82397e-029 -5.23417e-030 1.50834e-029
0.379443 -0.00784409 -0.00121811
-4.65818e-017 1.53809e-019 6.18775e-019
0.416011 -0.00374805 -0.00252707
0.390158 -0.000151812 -0.00510903
-6.74068e-032 3.87044e-030 3.45454e-031
6.07403e-032 1.63368e-030 2.38764e-031
3.2667e-032 2.90825e-030 2.71425e-031
0.00298769 -0.119284 -0.0239867
0.00250414 -0.098583 -0.011944
-0.000828338 -0.14925 -0.0111137
-2.3744e-018 1.33891e-016 1.60343e-017
4.4724e-019 -6.83284e-017 -7.8328e-018
-6.79739e-019 1.27464e-016 -5.1588e-018
0.0200507 0.439232 0.0041707
-0.00951103 0.243368 0.00221357
-0.00753654 0.246567 -0.00816289
-0.00875566 0.311952 -0.00243596
0.00278842 0.43195 0.00321587
0.00335835 0.44187 -0.00141123
0.00328246 0.476956 0.000898385
-0.00910589 0.25346 -0.00294952
-0.010588 0.266466 -0.00152673
-0.00881001 0.266293 -0.00410948
0.375703 0.0159891 -0.00485801
-3.22556e-029 3.05434e-030 7.29798e-031
0.47029 -0.0122807 -0.00188525
0.455112 -0.0129137 0.000801108
0.319971 -0.0501109 -0.00378038
0.467501 -0.0223633 0.00476621
0.250353 -0.0360476 -0.01455
0.459166 -0.0131675 -0.00883333
0.340569 -0.032 -0.0114404
-1.33069e-017 -1.65031e-016 2.64398e-018
5.65622e-031 6.5167e-030 2.22902e-032
-0.0415376 -0.61247 0.00849173
-0.0419367 -0.633055 0.00349576
-2.6791e-017 -3.39204e-016 3.06929e-018
-0.0920706 -0.658072 0.00175914
-0.0792264 -0.66053 -0.0117522
-4.52531e-017 -1.76346e-016 -1.84582e-018
1.37358e-030 8.47013e-030 4.62634e-032
-0.174796 -0.713679 -0.00688951
8.0617e-017 3.9428e-016 7.22667e-018
8.75156e-030 -7.91913e-030 -9.73483e-032
-0.124291 -0.712871 -0.0161553
1.51198e-016 7.54957e-016 2.01715e-017
-0.572121 -1.08558 -0.0194938
5.96741e-030 9.29785e-030 1.60243e-031
3.21807e-030 6.06328e-030 2.10043e-031
2.47183e-030 4.7536e-030 1.29632e-031
-0.496621 -0.829075 -0.0180411
-0.495107 -0.907991 -0.0361905
-0.487106 -0.906799 -0.0347833
-2.92524e-016 -4.9507e-016 -1.84404e-017
-1.85896e-015 -2.82201e-015 -1.14781e-016
-1.23662e-015 -2.25953e-015 -1.08761e-016
2.01899e-032 1.11244e-030 -1.58479e-032
1.18348e-032 2.05987e-030 -9.99218e-032
2.43877e-031 3.71437e-030 -3.07437e-031
-0.000890342 0.066444 0.000686965
4.67793e-018 9.29495e-017 -4.58613e-018
7.33466e-019 1.10602e-017 -7.42797e-019
-0.0061095 -0.0796005 0.00603691
-3.59333e-018 -1.80947e-017 1.01084e-018
-0.0041396 -0.0819795 0.0039181
-0.00755527 -0.0865209 0.00769433
-7.30068e-029 3.79192e-030 1.16384e-030
-7.09392e-029 1.50238e-030 5.73481e-031
0.480486 -0.0139154 0.000592951
3.51154e-017 -1.50597e-018 -5.744e-019
-3.89005e-017 1.79273e-018 3.1412e-019
0.500454 -0.0255884 -0.00803348
-8.66143e-017 7.59903e-019 1.20634e-018
0.523156 -0.0149651 -0.00448397
0.466862 -0.0148766 0.00245887
5.96459e-021 -4.10225e-019 3.92702e-020
0.0181145 0.167985 0.00493604
-9.2949e-031 -9.82019e-030 8.0318e-032
0.0166856 -0.0599425 0.000736979
-8.82696e-019 1.7083e-016 -5.54503e-018
0.0064361 0.0119093 0.0104144
0.00772899 -0.0759717 -0.00332724
0.0181498 0.307068 0.010422
0.00601614 0.086663 0.00691661
0.583439 -0.893834 0.0577562
0.50433 -0.64255 -0.158043
-0.108488 -1.26866 0.0623358
0.09297 -0.933678 -0.0505282
0.505973 -0.852515 -0.0510678
0.284095 -1.28623 -0.0492886
0.329433 -0.98854 -0.0369504
0.293693 -1.00494 -0.0461812
0.364019 -0.866234 -0.0991335
0.0563406 -1.14047 -0.000756502
0.00253769 0.239198 0.0112889
0.00728713 0.185838 0.00875544
0.00292252 -0.0380625 -0.0101356
0.0100513 0.3534 0.0125816
0.000744674 0.272048 -0.00864238
-0.00693908 0.305808 -0.00391862
-0.00311795 0.130499 -0.00389166
-0.0006583 0.278563 -0.0122121
-0.000798743 0.283398 -0.00831245
-0.0018001 0.222915 -0.00709942
-0.00114563 0.269421 -0.0084656
-0.00392639 0.205721 -0.00873282
-0.00348577 0.291118 -0.0110872
-0.00165394 0.212404 -0.00511382
2.09878e-017 -4.18827e-017 -4.52153e-019
7.56947e-017 -1.70746e-017 3.84941e-018
0.396284 0.213159 -0.000870964
0.395934 -0.0133123 -0.00922587
-4.0186e-017 2.01473e-017 8.36084e-030
0.253331 0.0702745 0.00161348
0.248992 -0.0525804 0.0133574
0.273445 0.00572599 0.00890894
0.272087 -0.0593238 0.00990384
0.411132 0.0961281 -0.0027977
1.78914e-019 -5.51681e-017 -4.17012e-018
0.00177068 0.100312 0.00264413
-1.55997e-031 4.94867e-030 7.58135e-031
0.000599547 0.0557709 -0.00261187
0.00084555 -0.0991495 -0.00872924
-2.03285e-018 -9.14925e-017 -6.16174e-018
0.000260878 -0.0901216 -0.00909177
0.0014199 -0.0854023 -0.00940915
0.0015461 0.0723898 -0.00104171
0.00372655 -0.0953619 -0.0112532
3.1275e-030 1.91592e-029 1.55283e-032
-0.157118 -1.33938 -0.00461851
2.62635e-030 6.12923e-029 -3.03703e-031
4.77812e-030 2.90967e-029 3.25928e-031
-0.149901 -1.2002 0.000841878
-1.82419e-016 -1.9866e-015 6.55198e-018
1.04983e-029 -1.68053e-029 8.64613e-030
-0.088719 -1.2126 0.00259782
-0.142293 -1.18903 -0.0221706
-1.51329e-016 -1.71917e-015 -1.71363e-017
0.483152 -0.000271096 -8.75699e-005
-2.59218e-029 5.23226e-032 3.06297e-032
-2.68679e-029 8.57862e-032 1.02656e-031
-4.46444e-029 5.1795e-032 1.70976e-031
0.440064 1.9926e-006 -0.000694667
0.440656 -0.00025308 -0.00222202
0.430637 0.000805874 -0.00235057
1.90387e-029 5.13097e-020 1.27582e-018
1.74706e-029 -1.6629e-019 5.29046e-019
3.6522e-017 3.99221e-020 -1.34903e-031
0.163748 0.312791 -0.0218815
0.0369389 0.438186 0.00640022
0.0301528 0.362588 -0.0238163
0.041922 0.365864 0.00848108
0.118496 0.422134 -0.0075456
0.0928793 0.373717 -0.0244321
0.107017 0.348797 -0.0102742
0.0318812 0.446964 -0.0107521
0.0746357 0.461124 0.00473614
0.0619575 0.437191 -0.0150157
-9.0094e-029 4.64505e-031 -1.34922e-031
-5.57327e-029 4.02127e-031 2.63063e-031
-6.68411e-029 7.38427e-031 -2.03519e-031
0.481095 -0.00547657 -0.000700804
2.64053e-017 -3.7321e-021 -1.89356e-019
2.54858e-017 -2.31253e-021 -5.12452e-022
0.449262 -0.00134055 -0.0022788
1.22066e-018 1.45092e-029 4.41769e-031
0.420417 -0.00222773 -0.00258318
0.460145 -0.00450092 0.00124074
1.60818e-029 1.09021e-029 -7.69942e-031
-0.672595 -0.511457 0.0356506
5.67132e-030 3.95564e-030 -4.30595e-031
-0.576102 -0.420233 0.0418325
-0.524776 -0.292875 0.0339707
1.40155e-015 1.05318e-015 -1.30481e-016
-0.73787 -0.452446 0.0305026
-0.514625 -0.402405 0.0462287
-0.507901 -0.319719 0.0363964
-1.01942 -0.00116524 0.00238778
2.22353e-028 5.16002e-031 3.36633e-031
1.85452e-029 4.88622e-032 -1.54726e-031
-1.02283 6.39047e-005 -0.0014742
-0.756549 -0.00673631 -0.0048445
-0.717788 -0.00708723 0.00286003
-1.11049 0.0023893 -0.00272273
-3.22956e-029 2.29172e-031 7.4027e-031
-0.641676 -0.00470213 -0.00790087
-0.708462 0.00165401 -0.00299284
-4.53562e-029 1.2664e-030 4.82326e-031
-1.75028e-029 1.04218e-030 3.43647e-031
-2.5063e-029 1.33899e-030 1.05223e-030
-6.73144e-017 3.60506e-018 1.11601e-018
-1.66389e-018 8.39961e-020 6.22922e-020
0.381691 -0.0136047 -0.0025249
-2.34223e-017 1.53276e-018 1.12492e-018
0.361651 -0.0197525 -0.00684314
0.352105 -0.0177085 -0.0170861
-9.26032e-029 1.75265e-030 -3.62618e-031
0.45146 -0.00824473 0.00105079
0.3924 -0.0107851 0.00307667
0.418239 -0.00676254 0.00208183
0.545898 -0.0112256 -0.00131894
0.555501 -0.00680065 0.000347148
0.487854 -0.0094941 0.000114023
-2.30395e-029 2.10415e-030 -8.60508e-032
-4.17341e-029 1.52182e-030 8.99325e-032
8.16531e-017 -7.33781e-018 -1.08206e-018
7.07004e-017 -5.89641e-018 -9.82642e-019
0.368339 -0.0308575 -0.000657124
6.32857e-018 -3.94649e-019 -1.67227e-019
0.374788 -0.0176485 -0.00734579
-7.52665e-029 -1.50311e-031 2.78089e-031
0.4817 0.00104514 -0.000569951
-5.10585e-029 -1.42389e-031 -1.11665e-032
0.372136 0.000480212 0.000666941
-1.38507e-016 -1.58911e-018 6.35572e-019
0.470104 0.00298807 -0.00287149
0.386705 0.00361527 0.00112222
0.511562 -2.22527e-005 0.00141132
0.405786 0.00299326 -0.00155531
-2.15877e-029 1.74474e-031 -2.29965e-031
-6.06726e-029 1.75933e-031 -5.31898e-031
-7.05091e-029 5.93517e-031 -3.7042e-031
5.02716e-017 -1.04764e-018 1.69873e-018
-5.40727e-017 1.29812e-018 -1.50301e-018
0.383188 -0.00596905 0.0108788
-3.47303e-017 8.21243e-019 -7.73175e-019
0.391418 -0.00596831 0.00806372
0.390904 -0.00767365 0.00479823
-4.14524e-030 8.12461e-030 3.94408e-031
-0.0524427 -0.20762 -0.0272403
-5.81457e-030 1.1853e-029 3.2165e-030
0.21078 -0.0233858 -0.0211257
0.0529022 -0.217091 -0.0008942
1.3322e-018 -8.07403e-017 -2.59258e-018
0.122335 -0.165812 -0.00516543
0.0443134 -0.243392 -0.0389353
0.0791658 -0.129572 -0.0295847
0.15615 -0.226761 -0.0462935
-6.43274e-030 5.97687e-031 7.67431e-031
-5.52577e-029 5.43616e-031 1.03218e-030
-6.59043e-030 -2.23902e-030 1.03848e-030
0.21905 -0.0277527 -0.0295188
0.214015 -0.00252366 -0.0213107
0.200286 0.00135376 -0.0367956
3.08385e-030 8.69417e-030 -6.20689e-030
4.10184e-017 -7.75382e-018 -1.30722e-017
-4.99279e-017 2.0206e-018 1.22758e-017
-2.87034e-029 2.14351e-030 -4.25692e-031
-2.05626e-017 2.03633e-018 -1.17884e-019
7.87527e-017 -5.83224e-018 -5.03728e-019
0.414853 -0.0295565 0.00285642
-0.376993 -1.20595 -0.0211226
7.60469e-030 2.22961e-029 5.97189e-031
-0.472486 -1.06611 -0.0132577
1.59604e-029 5.28559e-029 5.23161e-031
-0.337604 -1.07294 -0.0238753
-0.450552 -1.16905 -0.0192607
-0.309096 -1.11991 -0.0189354
-0.405416 -1.14038 -0.0433986
6.41753e-017 2.1149e-016 7.83703e-018
-0.354488 -1.11841 -0.0271793
-0.473568 -1.12378 0.0249702
-0.51134 -1.29617 -0.00195109
-0.39502 -1.02865 0.103508
-0.322625 -1.18432 0.051965
-0.503486 -1.25934 0.00531013
-0.404397 -1.16549 0.0677732
-0.40719 -1.28864 0.0123014
-0.359434 -1.17185 0.151331
-0.453547 -1.27927 0.0264294
0.482648 0.0008402 0.000482013
-1.12968e-028 -8.57736e-032 1.89651e-031
-4.9097e-029 -2.14449e-031 -8.18889e-032
0.490331 0.000394774 -0.000530208
0.381838 0.000309538 0.00180689
0.372587 0.00270714 0.002349
0.50706 0.00216758 0.000785972
5.47514e-029 -8.50906e-031 -1.20868e-029
0.483038 0.000391541 -0.000761619
0.441363 0.000483151 0.000829461
-2.2488e-029 1.10304e-031 -7.87636e-032
-5.60762e-029 2.67259e-031 -3.51882e-031
-1.00687e-028 8.96855e-032 -3.26172e-031
1.74254e-029 6.5282e-030 1.17985e-029
0.384984 -0.000539697 0.00187103
9.37242e-017 6.05732e-021 8.70872e-019
0.405999 -0.00231199 0.00433325
-4.02885e-017 9.32288e-020 -3.0191e-019
0.370386 -0.00146191 0.00277226
-3.15242e-029 -4.45744e-033 2.46758e-032
-5.94013e-029 -1.49324e-032 -1.16208e-031
0.486737 -0.000449607 0.000150404
-9.99478e-029 1.79693e-031 -2.41361e-031
1.11812e-016 2.24493e-019 1.65557e-019
0.473851 0.000469347 -6.44549e-005
-8.89431e-017 7.19792e-020 -1.85828e-019
0.474011 0.000720316 0.00118278
4.05168e-017 7.41898e-020 2.16005e-019
0.452511 -0.00124688 0.00156663
0.473449 0.00137971 -0.000782061
-1.12181e-028 -2.11538e-031 2.66417e-031
0.561466 6.23301e-005 2.60259e-005
0.421423 0.00180976 -0.00320392
0.494866 0.000983215 7.23435e-005
0.45088 0.000675154 0.000645778
0.556227 -0.000682328 -0.000417
0.459775 0.00167298 -0.000656763
1.89374e-029 4.0686e-031 4.01682e-033
-0.541612 -0.0168318 0.00398968
1.85729e-016 2.05813e-017 -1.5516e-018
-0.697765 -0.0129675 0.00357439
-0.970894 -0.0279156 -0.000508074
-1.59607e-031 1.19025e-030 -3.77795e-032
1.879e-031 -5.98792e-030 1.42953e-031
0.00125806 -0.0147623 -0.00239184
-0.00251156 -0.0109829 -0.00146783
0.00188478 -0.0731552 0.00701906
-6.81522e-019 2.1555e-017 -1.40831e-018
0.00222432 -0.0408633 0.00274777
-2.87467e-005 0.329594 0.0030134
0.00489013 0.141258 0.00327602
0.00283866 0.295466 0.000342391
-0.000492032 0.235255 0.00496765
0.00486969 0.259072 0.0050756
0.000107349 0.3171 0.00154408
-0.000221354 0.285402 0.00211118
0.00582751 0.236091 0.0029288
0.00456612 0.209098 0.00532944
0.00136253 0.286685 0.00213033
0.00409396 0.14341 0.0048399
0.000694692 0.235837 0.00569729
0.000396958 0.168598 0.00762042
1.08575e-028 2.81321e-030 4.65472e-031
1.73019e-028 5.55921e-030 -1.49492e-031
3.47942e-029 4.53373e-031 3.25247e-032
-0.84468 -0.0157602 -0.00630218
-0.800228 -0.0228889 -0.00323747
-0.821509 -0.0134171 -0.00321071
-1.96293e-016 -1.24199e-018 3.54657e-019
-2.47492e-016 -5.02269e-018 -2.28153e-018
-2.37621e-016 -6.60556e-018 -1.60103e-018
2.66779e-030 9.55302e-030 -2.88102e-031
-0.428262 -1.0369 0.00707173
1.30161e-029 5.61627e-029 -4.41376e-031
5.25405e-030 2.3414e-029 -5.46305e-031
-0.348336 -1.27236 0.0408918
5.98984e-031 -8.84717e-030 -1.25379e-029
-1.89846e-016 -8.67333e-016 3.64594e-017
-0.296657 -1.1763 0.0222505
-0.29329 -1.19915 0.0447433
-1.34341e-016 -6.63813e-016 2.2684e-017
-0.00111606 0.0444238 -0.00224293
0.000689056 0.0784379 0.00119635