# vtk DataFile Version 2.0 
output.vtk, Created by Freefem++, via gregorio
ASCII
DATASET UNSTRUCTURED_GRID
POINTS 7451 double
-3.79965 2.23652 0.040848
-4.13429 2.05574 0.276253
-4.09122 2.24524 0.070091
-4.01836 2.27766 0.330071
-3.96697 2.14613 0.158551
-3.94543 2.24088 0.0554695
-3.90901 2.25709 0.185459
-4.11275 2.15049 0.173172
-4.07633 2.1667 0.303162
-4.05479 2.26145 0.200081
-4.81817 0.732763 -0.840268
-4.76136 0.37264 -0.736193
-5.12328 0.495929 -0.550642
-4.73872 0.559667 -0.434419
-4.78977 0.552702 -0.788231
-4.97072 0.614346 -0.695455
-4.77845 0.646215 -0.637344
-4.94232 0.434285 -0.643417
-4.75004 0.466153 -0.585306
-4.931 0.527798 -0.49253
-7.58244 -0.891248 -0.453516
-8 -0.559587 0.124298
-7.26059 -0.264226 0.250847
-7.58828 -0.999993 0.00381
-7.79122 -0.725418 -0.164609
-7.42152 -0.577737 -0.101334
-7.58536 -0.94562 -0.224853
-7.6303 -0.411906 0.187573
-7.79414 -0.77979 0.064054
-7.42444 -0.632109 0.127328
-5.46564 0.048234 0.998836
-5.51396 -0.351144 0.936321
-5.02851 -0.125769 0.598961
-5.56665 -0.148801 0.504295
-5.4898 -0.151455 0.967578
-5.24708 -0.0387675 0.798898
-5.51614 -0.0502835 0.751565
-5.27124 -0.238457 0.767641
-5.5403 -0.249972 0.720308
-5.29758 -0.137285 0.551628
-4.20269 -2.80441 0.102764
-3.63085 -2.57461 -0.287529
-4.13183 -2.29387 0.255347
-4.14432 -2.47254 -0.273935
-3.91677 -2.68951 -0.0923825
-4.16726 -2.54914 0.179055
-4.1735 -2.63848 -0.0855855
-3.88134 -2.43424 -0.016091
-3.88759 -2.52358 -0.280732
-4.13807 -2.38321 -0.009294
-6.25062 -0.085247 0.575431
-6.51584 -0.423084 -0.15939
-6.46019 0.447486 0.293263
-6.75561 -0.174737 0.413139
-6.38323 -0.254165 0.20802
-6.35541 0.181119 0.434347
-6.88822 -0.343655 0.0457285
-6.86039 0.09163 0.272055
-6.48801 0.012201 0.0669365
-4.88162 0.371746 0.655425
-4.51246 -0.112716 0.623981
-4.65723 0.09269 0.995695
-4.69704 0.129515 0.639703
-4.95507 0.122989 0.627193
-4.76942 0.232218 0.82556
-4.77049 -0.119243 0.611471
-4.58484 -0.010013 0.809838
-4.84287 -0.0165395 0.797328
-3.75099 1.20677 0.090288
-3.64118 0.745776 0.266863
-4.09568 0.790235 0.315934
-3.78936 1.07086 0.69071
-3.69609 0.976272 0.178575
-3.92333 0.998502 0.203111
-3.77017 1.13882 0.390499
-3.86843 0.768006 0.291399
-3.71527 0.908319 0.478787
-3.94252 0.930549 0.503322
-2.18572 0.40145 0.915881
-1.75478 0.245881 0.526965
-1.94554 -0.013967 0.999902
-1.76886 0.356252 0.93439
-1.97025 0.323665 0.721423
-2.06563 0.193741 0.957891
-1.97729 0.378851 0.925135
-1.85016 0.115957 0.763433
-1.76182 0.301067 0.730678
-1.8572 0.171143 0.967146
-5.06116 0.824959 0.710182
-4.88551 0.773989 0.80113
-4.92155 0.772883 0.437198
-5.01596 0.602336 0.857802
-4.97333 0.799474 0.755656
-4.99135 0.798921 0.57369
-5.03856 0.713647 0.783992
-4.90353 0.773436 0.619164
-4.95074 0.688163 0.829466
-4.96876 0.687609 0.6475
-2.34262 2.51752 0.051733
-2.4672 2.85727 -0.311185
-2.29554 2.81673 0.086134
-2.65762 2.74748 0.16058
-2.40491 2.6874 -0.129726
-2.31908 2.66712 0.0689335
-2.50012 2.6325 0.106157
-2.38137 2.837 -0.112526
-2.56241 2.80238 -0.0753025
-2.47658 2.7821 0.123357
-3.50303 -3.76846 -0.636668
-3.49422 -3.29308 -1.15018
-3.31427 -3.71149 -1.25136
-2.90724 -3.34218 -0.858121
-3.49863 -3.53077 -0.893424
-3.40865 -3.73997 -0.944014
-3.20514 -3.55532 -0.747394
-3.40425 -3.50228 -1.20077
-3.20073 -3.31763 -1.00415
-3.11076 -3.52683 -1.05474
-4.0054 2.49156 -0.125899
-3.5956 2.50054 -0.194198
-3.83412 2.54803 0.0159
-3.8005 2.49605 -0.160049
-3.90253 2.36404 -0.0425255
-3.91976 2.5198 -0.0549995
-3.69763 2.36853 -0.076675
-3.71486 2.52428 -0.089149
-3.81689 2.39228 0.028374
-3.73452 -3.68531 -1.05781
-3.52439 -3.6984 -1.15459
-3.61437 -3.4892 -1.104
-3.61877 -3.72688 -0.84724
-6.37864 0.944563 0.328331
-6.25891 0.813305 0.581838
-6.65332 0.772267 0.635298
-6.31878 0.878934 0.455085
-6.41941 0.696025 0.310797
-6.51598 0.858415 0.481815
-6.35955 0.630395 0.43755
-6.45612 0.792786 0.608568
-6.55675 0.609877 0.46428
1.62066 -0.841518 -0.540229
1.89324 0.238579 -0.195511
2.01627 -0.690819 -0.723027
2.25185 -0.211859 0.261412
1.75695 -0.30147 -0.36787
1.81846 -0.766169 -0.631628
1.93625 -0.526689 -0.139408
1.95475 -0.22612 -0.459269
2.07254 0.01336 0.0329505
2.13406 -0.451339 -0.230807
-2.56949 2.06853 0.305158
-2.91403 1.60744 0.564909
-3.02709 2.08175 0.021586
-2.87501 2.07662 0.630995
-2.74176 1.83799 0.435033
-2.79829 2.07514 0.163372
-2.72225 2.07258 0.468077
-2.97056 1.8446 0.293247
-2.89452 1.84203 0.597952
-2.95105 2.07919 0.32629
-5.39985 0.358755 0.933432
-5.34934 0.453264 0.543553
-5.56264 0.558471 0.829524
-5.70805 0.297641 0.954678
-5.37459 0.40601 0.738492
-5.48124 0.458613 0.881478
-5.55395 0.328198 0.944055
-5.45599 0.505868 0.686538
-5.52869 0.375452 0.749116
-5.63535 0.428056 0.892101
-4.17913 0.323834 -0.696515
-4.36183 0.516245 -0.417662
-4.60784 0.019305 -0.528365
-4.46586 0.364911 -0.72315
-4.27048 0.42004 -0.557088
-4.39349 0.17157 -0.61244
-4.3225 0.344372 -0.709832
-4.48483 0.267775 -0.473013
-4.41384 0.440578 -0.570406
-4.53685 0.192108 -0.625757
-5.9377 0.438799 -0.558905
-5.87927 0.529091 -0.848565
-6.25926 0.555743 -0.831354
-6.07929 0.245277 -0.969453
-5.90849 0.483945 -0.703735
-6.09848 0.497271 -0.695129
-6.00849 0.342038 -0.764179
-6.06927 0.542417 -0.839959
-5.97928 0.387184 -0.909009
-6.16928 0.40051 -0.900404
-3.64743 2.72944 0.180305
-3.74077 2.63873 0.0981025
-3.72354 2.48298 0.110576
-3.62151 2.61499 -0.0069465
-3.98168 0.388062 0.141859
-3.76543 0.320245 0.603448
-3.81143 0.566919 0.204361
-3.70331 0.533011 0.435156
-4.03868 0.589149 0.228897
-3.87356 0.354154 0.372653
-3.93055 0.55524 0.459691
-6.17342 0.027823 -0.593282
-6.59748 0.255766 -0.966739
-6.35964 0.547779 -0.240473
-6.21634 0.291783 -0.712318
-6.42837 0.405755 -0.899047
-6.30945 0.551761 -0.535914
-6.38545 0.141794 -0.78001
-6.26653 0.287801 -0.416878
-6.47856 0.401772 -0.603606
-5.98474 0.742767 -0.66955
-5.96122 0.590783 -0.614227
-6.122 0.649255 -0.750452
-5.93201 0.635929 -0.759057
-5.86659 0.345457 -0.129882
-5.96054 -0.099592 -0.035866
-6.02 0.18664 -0.361582
-6.11312 0.446618 -0.185177
-5.91357 0.122933 -0.082874
-6.06698 -0.0358845 -0.314574
-6.16009 0.224094 -0.13817
-1.10421 0.363269 -0.931684
-0.773878 0.737644 -0.67519
-0.520452 0.269543 -0.962988
-0.384634 0.008888 -0.353445
-0.939043 0.550457 -0.803437
-0.812329 0.316406 -0.947336
-0.74442 0.186079 -0.642564
-0.647165 0.503594 -0.819089
-0.579256 0.373266 -0.514317
-0.452543 0.139215 -0.658216
-2.85287 -3.00249 -1.21636
-3.23054 -2.92385 -1.196
-3.06719 -3.3306 -1.25351
-2.88006 -3.17233 -1.03724
-3.06889 -3.13301 -1.02706
-2.98722 -3.33639 -1.05581
-3.0417 -2.96317 -1.20618
-2.96003 -3.16654 -1.23493
-3.14886 -3.12722 -1.22475
-3.38618 -2.05134 -0.098565
-2.37808 -2.56123 -0.134541
-2.49252 -2.47812 0.422472
-2.41131 -1.89586 0.044632
-2.88213 -2.30628 -0.116553
-2.93935 -2.26473 0.161954
-2.89875 -1.9736 -0.0269665
-2.4353 -2.51967 0.143966
-2.39469 -2.22855 -0.0449545
-2.45192 -2.18699 0.233552
-1.85713 -0.413967 0.42138
-1.65927 -0.390905 0.920431
-1.2503 -0.077569 0.384148
-1.80595 -0.084043 0.474172
-1.70702 -0.072512 0.723698
-1.50254 0.084156 0.455557
-1.7582 -0.402436 0.670905
-1.55371 -0.245768 0.402764
-1.45478 -0.234237 0.652289
-2.09043 2.55218 0.167395
-2.0659 2.66009 -0.048555
-2.19298 2.68445 0.126765
-2.18072 2.73841 0.0187895
-2.07816 2.60614 0.05942
-2.21652 2.53485 0.109564
-2.20426 2.58881 0.001589
-4.01665 2.44382 0.136481
-3.97233 2.67361 0.084512
-3.92539 2.49592 0.0761905
-3.99449 2.55872 0.110496
-4.01103 2.46769 0.005291
-3.90323 2.61082 0.050206
-3.98887 2.58259 -0.0206935
-3.92754 1.80484 -0.220103
-4.28096 1.83407 -0.225431
-4.13592 1.88983 -0.461486
-4.146 2.03152 -0.278406
-4.10425 1.81945 -0.222767
-4.03173 1.84734 -0.340795
-4.03677 1.91818 -0.249254
-4.20844 1.86195 -0.343458
-4.21348 1.9328 -0.251918
-4.14096 1.96068 -0.369946
-4.04038 -5 0.949212
-3.62468 -5 1.26221
-3.84559 -4.54287 1.07336
-3.71487 -5 0.728948
-3.83253 -5 1.10571
-3.94299 -4.77144 1.01129
-3.87763 -5 0.83908
-3.73513 -4.77144 1.16779
-3.66977 -5 0.99558
-3.78023 -4.77144 0.901156
-1.37334 0.812082 -0.583544
-0.975724 0.961208 -0.275823
-1.19336 -0.166381 -0.273753
-1.17453 0.886645 -0.429683
-1.07361 0.774863 -0.629367
-1.28335 0.32285 -0.428648
-0.874801 0.849426 -0.475506
-1.08454 0.397413 -0.274788
-0.983618 0.285631 -0.474471
-3.83515 -1.82017 -0.741539
-3.34976 -1.58414 -0.592596
-3.50394 -2.07825 -1.02313
-3.59245 -1.70215 -0.667067
-3.66955 -1.94921 -0.882335
-3.61067 -1.93575 -0.420052
-3.42685 -1.83119 -0.807863
-3.36797 -1.81774 -0.345581
-3.44506 -2.06479 -0.560848
-2.72946 0.769161 0.094533
-2.75119 0.681139 -0.326037
-2.98528 1.02631 -0.281501
-3.08113 0.734324 -0.34324
-2.74032 0.72515 -0.115752
-2.85737 0.897737 -0.093484
-2.90529 0.751742 -0.124353
-2.86823 0.853726 -0.303769
-2.91616 0.707731 -0.334639
-3.03321 0.880319 -0.31237
-2.94023 -2.47675 -0.674772
-3.14499 -2.03044 -0.633684
-3.22209 -2.2775 -0.848951
-3.16321 -2.26404 -0.386669
-3.03914 -4.25341 0.579285
-2.64287 -3.80807 0.20828
-2.47531 -4.18593 0.714333
-2.97264 -3.41482 0.618231
-2.84101 -4.03074 0.393783
-2.75723 -4.21967 0.646809
-3.00589 -3.83412 0.598758
-2.55909 -3.997 0.461307
-2.80776 -3.61144 0.413255
-2.72397 -3.80037 0.666282
-2.39684 -0.595487 -0.803365
-1.98884 -0.54749 -0.836812
-2.24172 -0.466498 -0.098067
-2.21295 -0.01831 -0.514797
-2.19284 -0.571489 -0.820088
-2.31928 -0.530992 -0.450716
-2.3049 -0.306899 -0.659081
-2.11528 -0.506994 -0.46744
-2.1009 -0.2829 -0.675804
-2.22734 -0.242404 -0.306432
-3.36239 -4.55484 -1.31864
-3.11171 -4.25429 -0.873787
-2.86199 -4.55394 -1.36046
-2.79118 -5 -0.96439
-3.23705 -4.40456 -1.09621
-3.11219 -4.55439 -1.33955
-3.07678 -4.77742 -1.14151
-2.98685 -4.40411 -1.11712
-2.95144 -4.62714 -0.919088
-2.82658 -4.77697 -1.16243
-3.88203 2.65205 -0.416886
-3.48121 2.84727 -0.340672
-3.82273 3 -0.474998
-3.72541 2.76868 -0.627028
-3.68162 2.74966 -0.378779
-3.85238 2.82603 -0.445942
-3.80372 2.71037 -0.521957
-3.65197 2.92364 -0.407835
-3.60331 2.80798 -0.48385
-3.77407 2.88434 -0.551013
[...]
POINT_DATA 7451
 
FIELD FieldData 2
velocity 3 7451 double
-0.122702 -0.347956 0.00973847
1.57582e-030 3.55964e-030 -1.99363e-031
4.56841e-031 1.24581e-030 -5.88691e-032
1.31837e-030 3.54403e-030 -1.81983e-031
-0.08357 -0.204111 0.0116304
-0.0727491 -0.200118 0.0094074
-0.0804923 -0.232939 0.0124694
-1.87778e-018 -4.55271e-018 3.19698e-019
5.68256e-018 1.41598e-017 -1.12293e-018
1.91905e-029 -8.23832e-030 -4.47425e-030
9.09958e-030 3.02861e-030 -2.08171e-031
-0.411427 -0.109195 0.00111621
-0.627431 -0.142503 0.00758483
-0.707485 -0.230705 0.006348
-0.227301 -0.0769069 0.00709543
-0.306661 -0.0931256 0.00993015
-0.405905 -0.146836 0.00948989
-0.535696 -0.13423 0.00707601
-0.59348 -0.17447 0.00544445
-0.677021 -0.192549 0.00860301
9.76929e-029 -3.02909e-031 2.81888e-032
-0.848782 0.007333 -0.000630322
-1.10724 5.31738e-005 -0.000611965
5.64068e-029 -2.2751e-031 5.45023e-032
-0.552767 0.00344788 7.95658e-005
-0.836976 1.63276e-005 -0.00253507
-1.34525e-016 2.51146e-019 -3.15639e-019
-1.00952 0.00129327 -7.9959e-005
-0.479949 0.00635638 -0.000800118
-0.74316 0.00192667 -0.000179447
3.32361e-029 3.43407e-030 5.87587e-032
2.18813e-029 1.39533e-030 2.82176e-031
-0.701386 -0.105084 -0.0136539
-0.886571 -0.0624297 -0.00506831
-1.47391e-016 -6.61045e-018 -1.44827e-018
-0.423364 -0.0481406 -0.00388283
-0.527106 -0.0335246 -0.00348395
-0.40411 -0.031309 -0.0075262
-0.506231 -0.0232421 -0.00486505
-0.799644 -0.0860476 -0.00844905
-4.24874e-030 -6.50439e-029 2.04351e-030
0.0260114 0.422806 0.00308154
-4.64087e-030 -7.74398e-029 2.56874e-030
-8.17163e-031 -9.73281e-030 -3.29001e-033
0.0234273 0.286562 -0.00362412
-5.17214e-017 -5.76389e-016 2.23352e-017
-3.9666e-018 -4.00616e-017 5.41902e-019
0.0265385 0.339833 -0.00563339
0.0219215 0.251498 0.000746302
-5.70135e-017 -6.10957e-016 1.03366e-017
-0.832457 -0.0163668 -0.00239234
-1.00554 -0.00958833 -0.00226338
-0.905133 -0.0130036 -0.000897553
-1.01268 -0.00261284 -0.000990822
-1.1346 -0.0173417 -0.00319106
-0.987024 -0.0172456 -0.00228231
-1.11847 -0.00467778 -0.00387915
-1.17262 -0.00249946 -0.000470988
-1.27299 -0.0170132 -0.00154833
-0.564407 -0.186612 0.00451311
-0.570815 -0.101998 -0.0200178
1.89105e-029 5.16893e-030 1.98636e-031
-0.624578 -0.165513 -0.00817833
-0.690097 -0.154631 -0.00383652
-0.309898 -0.108589 0.00313753
-0.635851 -0.112175 -0.0187387
-0.34239 -0.0926759 -0.0101502
-0.390437 -0.0839042 -0.00819904
-0.43097 -0.455986 -0.0225511
-0.467258 -0.268549 -0.0507461
-0.606809 -0.338736 -0.015043
-0.239914 -0.301713 -0.000818558
-0.465903 -0.38835 -0.03958
-0.520508 -0.400354 -0.0202678
-0.394697 -0.420191 -0.0165194
-0.554725 -0.312638 -0.0327745
-0.38745 -0.330224 -0.0249675
-0.423745 -0.336655 -0.00806424
-1.73397e-029 -6.58565e-030 1.20216e-030
0.34866 0.0527053 -0.00676075
-2.08153e-029 -6.29214e-030 -3.76868e-031
-4.4016e-030 -2.40257e-031 3.014e-032
0.188175 0.0303201 -0.00647397
6.02765e-017 6.32943e-018 2.21285e-018
3.22172e-018 2.36458e-019 -3.39135e-020
0.213245 0.0179992 -0.00152229
0.199008 0.0116549 0.00085299
-6.92546e-017 -9.60989e-019 -7.89139e-019
2.49932e-017 1.16078e-017 -6.92037e-019
2.78575e-030 1.26989e-030 -5.28323e-032
-0.509023 -0.210916 0.00888473
2.9758e-030 1.21595e-030 -5.51064e-032
1.25024e-017 6.25852e-018 -3.8556e-019
-0.286725 -0.126793 0.00663675
9.83704e-017 6.94549e-017 -3.51479e-018
-0.286874 -0.138396 0.00764592
1.52411e-016 7.78677e-017 -3.34957e-018
-0.316409 -0.135064 0.00572023
-0.0332509 -0.236682 -0.0137442
-0.0204434 -0.252005 -0.00890521
-0.0126051 -0.236128 -0.00708983
-0.0524525 -0.499293 -0.0155363
-0.0290318 -0.266867 -0.0113088
-0.0231865 -0.237502 -0.0105976
-0.045688 -0.378685 -0.0166068
-0.0188125 -0.269369 -0.00958019
-0.0382196 -0.394977 -0.0125905
-0.0321887 -0.383246 -0.0119498
0.0111535 0.27303 0.00823594
-6.48917e-031 -2.11545e-029 -1.07236e-030
-3.24746e-031 -1.62197e-029 -9.13609e-031
-0.00171304 0.22925 0.0130146
0.0063578 0.14663 0.00816355
0.00547848 0.1438 0.00817904
0.00464741 0.279058 0.0118098
2.23067e-029 2.26613e-030 6.48108e-029
0.00210568 0.13722 0.00929667
0.00106518 0.118274 0.00836008
9.73413e-031 3.58465e-030 -1.02446e-031
-0.0908358 -0.371679 0.00400129
-0.0486165 -0.229825 0.00507041
-0.0581984 -0.233661 0.006373
-0.0604499 -0.194471 0.00629169
-0.0276867 -0.11741 0.00346076
-0.110668 -0.372357 0.00599065
-0.0762742 -0.33003 0.00577747
-0.0826176 -0.287505 0.00771768
-2.62748e-031 -4.75651e-030 -2.33999e-031
-3.60773e-018 -7.01119e-017 -5.19848e-018
3.5354e-018 6.26989e-017 4.55389e-018
0.00761018 0.1387 0.00676302
1.03671e-029 1.7716e-031 1.8164e-033
1.37352e-029 2.29589e-031 1.60722e-032
1.79193e-029 1.90685e-031 4.35804e-032
6.95789e-017 1.53908e-018 8.31828e-020
-0.521094 -0.0128284 -0.000488095
-5.00473e-030 -4.54111e-029 -2.29377e-029
-0.511574 -0.00650518 -0.000654205
-1.81808e-017 8.20475e-019 1.71648e-019
-0.52064 -0.0058718 -0.00102369
-1.51228e-028 3.81031e-031 -7.31636e-032
0.48573 0.00058154 0.000721655
-5.59199e-029 3.78256e-032 -1.31762e-031
0.473223 -0.00219417 0.001307
0.416385 -0.00125911 0.000283218
-6.67776e-017 3.32932e-020 -3.04836e-019
0.375749 -0.000215447 0.00136195
0.393904 0.000709597 0.000857815
0.535971 -0.00104097 0.00163503
0.397287 -0.00114908 0.00174029
-0.0806927 -0.331163 -0.0294871
-0.119337 -0.347067 -0.035067
-0.171465 -0.534547 -0.0264962
-0.0915881 -0.417965 -0.0220954
-0.107585 -0.366572 -0.0354701
-0.135252 -0.483484 -0.0343412
-0.0943078 -0.405064 -0.0304963
-0.179246 -0.521097 -0.0387207
-0.109019 -0.389859 -0.0291378
-0.152933 -0.554536 -0.0321689
3.13553e-030 4.13522e-031 -6.83858e-032
-0.669535 -0.123941 0.00998101
6.78076e-030 5.43227e-031 -1.18499e-031
3.01056e-029 2.00907e-030 -1.53541e-031
-0.377214 -0.0498981 0.0102277
-9.80205e-017 -7.72486e-018 3.39143e-018
1.3639e-016 6.12361e-018 -3.92925e-018
-0.364776 -0.0441651 0.00885239
-0.380727 -0.031072 0.00695403
-2.22367e-017 -6.93398e-019 7.71867e-019
-0.404152 -0.101643 -0.0145403
-0.687644 -0.233286 -0.0112782
-0.729685 -0.112706 -0.00684527
-0.409433 -0.117941 -0.00507341
-0.567718 -0.169789 -0.0140217
-0.583459 -0.118151 -0.0114786
-0.411398 -0.114072 -0.0095787
-0.744283 -0.174802 -0.0114971
-0.579377 -0.181458 -0.00652459
-0.594343 -0.127333 -0.00633121
-0.62799 -0.0135438 0.00196641
3.37353e-030 3.94102e-032 -7.12854e-033
3.00527e-029 3.65259e-031 -1.55171e-031
1.38364e-029 1.85642e-031 -2.82922e-032
-0.338392 -0.00334311 0.00131467
-0.335932 -0.00628259 0.00284669
-0.366525 -0.00422268 0.00204048
-2.40027e-016 -1.90102e-018 2.11708e-018
-1.15717e-016 -2.35002e-019 1.05336e-018
-1.11144e-029 -2.15468e-029 4.83721e-029
-0.0589372 -0.397894 0.00555939
-0.0558784 -0.321105 0.00573203
-0.0868802 -0.369967 0.00683312
-0.07956 -0.413378 0.00423867
-0.742514 -0.156892 -0.0445932
-0.409558 -0.0383484 -0.0219426
-0.605113 -0.208297 -0.0504566
-0.464621 -0.147698 -0.0412828
-0.695843 -0.26641 -0.0318456
-0.615559 -0.0998665 -0.0381779
-0.5479 -0.211674 -0.0234739
-0.812846 -0.0103036 0.000551295
-3.67311e-017 4.34374e-020 8.29379e-020
-0.81321 -0.00909069 0.00354405
-0.508081 -0.0073268 0.00302036
-2.51776e-029 -3.07813e-029 6.07163e-029
-0.508134 -0.00580875 0.00457696
-0.461623 -0.00796792 0.00171924
-0.944247 -0.0126208 0.00308011
-0.591879 -0.00285231 0.00304175
5.45202e-030 9.49653e-032 -8.94482e-033
-0.34298 -0.00642872 0.00205042
-7.74157e-017 -1.26003e-018 1.73812e-018
-1.02241e-016 -8.34879e-019 6.62874e-019
-1.11591 -0.0513917 0.00295349
-1.2507 -0.0418232 -0.00322438
-1.06247 -0.0265931 0.00072554
-0.98088 -0.0224307 0.0035499
-1.24858 -0.0507282 0.000250099
-1.1412 -0.0262682 -0.00144865
-1.18968 -0.0274266 0.00150385
1.98551e-017 -1.52882e-019 -3.13831e-019
-4.93244e-029 4.70014e-031 4.76247e-031
-1.82856e-029 5.42646e-032 9.53741e-032
0.476845 -0.004563 -0.000860565
-3.05436e-017 2.81371e-019 4.43082e-019
1.35835e-029 -3.26225e-029 9.86162e-029
0.291127 -0.00292552 -0.00291507
-3.14653e-017 1.02494e-019 3.20683e-019
0.325765 -0.00362935 -0.00231885
0.294195 0.000105042 -0.00199992
7.82498e-032 -7.37563e-030 -5.77347e-031
-3.22319e-031 -2.26521e-029 -1.37012e-030
-5.59482e-033 -2.7325e-030 -2.03908e-031
-0.00125102 0.120584 0.00926525
0.00196507 0.127566 0.0101305
2.24648e-005 0.116293 0.00814808
-6.97474e-019 -6.98698e-017 -5.72362e-018
-8.26076e-020 2.71456e-017 2.42163e-018
-1.26301e-018 -5.73914e-017 2.61375e-018
0.0214597 0.695195 -0.00766109
-0.0251389 0.503802 -0.00170647
-0.0275201 0.714335 -0.0390007
-0.0277073 0.64717 -0.0187521
-0.00713608 0.737811 -0.00503836
-0.00367893 0.891489 -0.0277486
-0.00632489 0.839518 -0.0165315
-0.0276474 0.656566 -0.0171137
-0.0266108 0.577237 -0.00759541
-0.028972 0.708703 -0.0303572
0.36647 0.161841 0.0247034
-2.67221e-029 -1.77095e-030 -1.99921e-031
0.456279 0.015269 -0.00231642
0.408593 0.106108 -0.000206246
0.246246 0.00823116 -0.000843682
0.422524 0.0334695 -0.00200496
0.195125 0.00562024 0.00938048
0.412472 0.0528071 -0.00103239
0.268131 0.00137611 -0.00297261
-1.95495e-018 -2.71962e-017 -1.2285e-018
1.1139e-031 1.26535e-030 6.20043e-032
-0.00755344 -0.120272 -0.00453878
-0.00808551 -0.115194 -0.00401393
-4.14618e-018 -5.21371e-017 -2.22391e-018
-0.0166185 -0.129869 -0.00752498
-0.0152958 -0.121923 -0.00788669
-7.44434e-018 -3.01209e-017 1.14435e-018
2.86551e-031 1.81847e-030 -3.91603e-032
-0.031264 -0.133521 0.0043071
1.25163e-017 6.64832e-017 -1.65562e-018
2.06232e-029 -6.78899e-030 -1.21498e-031
-0.0212285 -0.131098 0.00195623
2.18554e-017 1.18657e-016 -2.55954e-018
-0.184239 -0.29561 0.0083369
1.4905e-030 2.08302e-030 -1.1813e-031
7.02444e-031 1.12663e-030 -5.78828e-032
5.27333e-031 9.165e-031 -4.8693e-032
-0.113129 -0.170223 0.00973864
-0.103346 -0.1651 0.00851641
-0.100269 -0.16997 0.00884262
-5.15497e-017 -7.77326e-017 5.83938e-018
-3.2315e-016 -4.55057e-016 3.84034e-017
-1.98056e-016 -3.32649e-016 2.34312e-017
-1.36052e-031 -4.20509e-030 1.88964e-031
-2.14695e-031 -1.25681e-029 6.02949e-031
-6.49545e-031 -2.1193e-029 1.20847e-030
0.0101583 0.41545 -0.0154915
-3.65469e-018 -1.72716e-016 8.2816e-018
-5.88248e-019 -1.94593e-017 1.04269e-018
0.0065731 0.252006 -0.0100327
3.25632e-018 3.73526e-017 -2.13755e-018
0.00616545 0.317694 -0.0150695
0.00910828 0.306444 -0.0165059
-5.69941e-029 -5.87266e-032 1.2718e-030
-5.98628e-029 3.85721e-031 6.41314e-031
0.480601 -0.0115125 0.000129818
2.52728e-017 3.63573e-020 -6.34544e-019
-2.74923e-017 1.54665e-019 6.18214e-019
0.383848 -0.00312912 -0.00818173
-6.24916e-017 5.40378e-019 6.12243e-019
0.420246 -0.00181604 -0.00590899
0.3703 -0.00551788 -0.00330814
5.95021e-020 9.02488e-019 4.47208e-020
0.00715793 0.401512 0.0164164
-2.18399e-030 -6.11324e-029 -2.14288e-030
0.00821665 0.219486 0.0106635
-8.92752e-018 -7.14651e-017 -9.65578e-018
0.0195649 0.389175 0.0087572
0.00752822 0.188056 0.0125213
0.0147602 0.580117 0.00807497
0.0157105 0.380675 0.0139601
0.0202395 -0.0574364 -0.0512634
0.0192523 -0.0110328 -0.0338255
-0.128922 -0.209427 -0.0354884
-0.135569 -0.100863 -0.0472105
0.0179791 -0.044988 -0.0471656
-0.0619075 -0.160778 -0.046679
-0.0627066 -0.103659 -0.0563763
-0.0454645 -0.0933708 -0.0320674
-0.0513723 -0.0538242 -0.0409986
-0.126396 -0.158606 -0.0418947
-0.00171362 0.367198 0.0170436
0.00689215 0.412165 0.0172688
0.0072159 0.227653 0.0137847
0.00901651 0.571456 0.0103512
0.000651282 0.669447 -0.0330442
-0.0158032 0.657284 -0.0188346
-0.0173133 0.546946 -0.0346783
-0.000615886 0.747983 -0.047705
-0.00824167 0.711621 -0.0264772
-0.00975224 0.665718 -0.0367527
0.000350536 0.709872 -0.0411757
-0.0187134 0.646202 -0.0278509
-0.0102529 0.746185 -0.030809
-0.012839 0.682233 -0.042569
1.78353e-017 5.38433e-017 3.75972e-018
5.69287e-017 1.41194e-018 9.74208e-020
0.401683 0.439073 -0.0211766
0.30209 0.107268 -0.0259415
-2.79849e-017 -3.00531e-018 4.26329e-029
0.265804 0.292882 -0.0147486
0.201734 0.112107 -0.0179695
0.299529 0.167825 -0.0169198
0.231681 0.0572866 -0.0124497
0.385031 0.2499 -0.0291259
8.06479e-019 2.11756e-017 1.64194e-018
0.00199012 0.209846 0.00805459
1.94544e-031 -1.36998e-029 -4.92067e-031
-0.00166671 0.156125 0.00229208
0.00231356 0.100145 0.00571096
1.34564e-018 3.35004e-017 4.47329e-018
0.00057058 0.0895372 0.00313798
-5.22853e-005 0.0999708 0.00532302
-0.00066333 0.18684 0.00436436
-0.00105922 0.0784765 0.00272911
6.37994e-031 3.4502e-030 -7.21189e-032
-0.0414912 -0.322582 0.00195214
5.93549e-031 1.1064e-029 -1.05958e-031
1.01862e-030 5.04527e-030 -9.02487e-032
-0.0278675 -0.190409 0.00367442
-2.86242e-017 -2.43155e-016 5.45245e-018
2.29397e-029 -4.9951e-030 1.59947e-029
-0.0179941 -0.184235 0.00208583
-0.0258359 -0.17677 0.00175678
-2.29141e-017 -1.98241e-016 2.8454e-018
0.516929 -0.000285454 -0.000178835
-2.08475e-029 2.61855e-032 -4.53483e-033
-2.1676e-029 1.36893e-032 4.23e-033
-3.69241e-029 5.07599e-032 6.70934e-033
0.347348 0.000135903 -8.73467e-005
0.348968 -0.000132178 -0.000229919
0.346905 -0.000302235 6.0948e-005
1.4605e-029 -6.50378e-020 1.01185e-019
1.32433e-029 4.16074e-021 -1.11079e-020
2.53686e-017 -1.69171e-020 -1.4239e-030
0.201876 0.744696 -0.0467274
-0.0111229 0.79039 -0.0292362
-0.0170014 0.927146 -0.0901556
0.0361073 0.707501 -0.00572751
0.0921098 0.892965 -0.0539249
0.0691183 0.878031 -0.0778237
0.136414 0.836292 -0.0402715
-0.0175005 0.971886 -0.0674473
0.0525188 0.809005 -0.0199617
0.0435103 0.975785 -0.0585217
-7.81267e-029 1.11762e-031 2.19422e-032
-4.59958e-029 8.69146e-032 8.86755e-032
-5.71202e-029 4.56431e-031 -5.38908e-032
0.472739 -0.00385909 0.000154837
1.97197e-017 -5.80162e-023 -9.77019e-020
1.96582e-017 -4.39877e-022 -4.71357e-022
0.37312 4.98059e-005 -0.00126305
9.07627e-019 1.07084e-028 3.54749e-030
0.333091 0.000531045 -0.000987375
0.379166 -0.00256962 0.000707955
8.45906e-030 4.93521e-030 -2.58794e-031
-0.394488 -0.240292 0.0117512
2.88026e-030 1.71113e-030 -1.0763e-031
-0.26864 -0.172551 0.0101846
-0.260643 -0.139669 0.00815979
5.73962e-016 3.87266e-016 -2.92677e-017
-0.451929 -0.228882 0.0102459
-0.237558 -0.156055 0.0114453
-0.250281 -0.137802 0.00815448
-0.841013 0.000947925 0.00603174
1.85006e-028 -2.41383e-031 -2.71829e-031
1.37471e-029 -8.9881e-032 -1.71918e-031
-0.839951 0.00521199 0.00298633
-0.556549 0.00279129 0.00282105
-0.501207 -0.000362328 0.00637544
-0.929883 0.00411531 0.00362839
-2.37534e-029 3.36926e-029 6.26908e-029
-0.473345 0.00440413 0.00198018
-0.505804 0.00647612 0.00357585
-3.71917e-029 3.22521e-031 1.89052e-031
-1.36184e-029 1.87349e-031 1.53846e-031
-2.10396e-029 -9.30937e-031 -1.00246e-032
-4.55079e-017 1.95142e-018 3.11639e-019
-1.17765e-018 1.64912e-020 3.45534e-020
0.297304 -0.00205365 -0.00130082
-1.61509e-017 3.8822e-019 5.51268e-019
0.274402 -0.0050443 -0.00221014
0.283765 0.0047459 -0.0102127
-8.16237e-029 1.34595e-030 -3.09574e-031
0.381351 -0.00638687 0.000707113
0.3191 -0.00977158 0.00214481
0.345673 -0.00696625 0.000834372
0.530694 -0.00836491 0.000115958
0.548445 -0.00563234 -8.69744e-005
0.483012 -0.010429 -0.000468892
-1.78303e-029 -2.26727e-031 3.08158e-032
-3.34811e-029 4.09284e-031 -2.0828e-032
5.36019e-017 -2.49624e-018 -2.96808e-019
4.68838e-017 -1.89006e-018 -3.30073e-019
0.278583 -0.00244925 -0.000746826
4.19991e-018 -2.04203e-019 -4.84134e-020
0.286417 -0.00349636 -0.00278296
-6.24652e-029 2.64276e-031 2.53892e-031
0.472391 0.0015757 -0.00070448
-4.15504e-029 1.47243e-031 1.0755e-031
0.289116 -0.00154777 -0.000825677
-9.73835e-017 1.62792e-019 6.98279e-019
0.370075 -0.00306308 -0.0018684
0.30076 -0.000110857 -0.000780834
0.49523 -0.0015904 -0.000800127
0.317761 0.000606334 -0.00218233
-1.67046e-029 1.26286e-031 -1.34555e-031
-4.92133e-029 7.40164e-033 -3.21397e-031
-5.73105e-029 3.11935e-031 -2.7711e-031
3.33307e-017 -5.27206e-019 8.29204e-019
-3.58599e-017 6.07223e-019 -7.95125e-019
0.292251 -0.00385852 0.00573491
-2.34252e-017 3.25298e-019 -3.84926e-019
0.303931 -0.00292603 0.00386399
0.303679 -0.00332299 0.0028858
1.41503e-030 -8.24965e-030 4.52353e-031
-0.180404 0.117412 -0.0216387
1.95769e-030 -3.78222e-030 5.78839e-031
0.0750627 0.217357 -0.0289972
-0.0600032 0.0856912 -0.00565513
-1.36502e-017 -4.09359e-018 4.74232e-021
0.00881612 0.137796 -0.00697403
-0.068114 0.0435102 -0.00511626
-0.0686467 0.180834 -0.0235585
-0.00391191 0.0772679 -0.00787114
-6.73157e-030 -3.73702e-030 -8.49393e-031
-5.42519e-029 -7.4486e-030 -1.13493e-030
-9.22259e-030 -2.00613e-029 2.64451e-031
0.204874 0.0453939 0.0362151
0.243217 0.0879214 0.0219764
0.256211 0.198352 0.0516595
2.84822e-030 5.28232e-029 -3.26546e-029
5.60549e-017 5.33048e-017 1.3026e-017
-6.97149e-017 -4.52765e-017 -1.3512e-017
-2.18667e-029 -2.02675e-031 6.64779e-032
-1.34887e-017 3.82341e-019 -6.35996e-020
5.21723e-017 -1.59602e-018 -4.8435e-020
0.309067 -0.000106646 0.00128372
-0.0939059 -0.265963 0.00282775
1.63382e-030 3.31482e-030 -5.43665e-032
-0.152848 -0.264518 -0.00451196
3.63544e-030 8.17481e-030 4.83353e-032
-0.0602313 -0.138178 0.00369496
-0.127429 -0.273975 -0.000661344
-0.0606487 -0.14626 0.00229212
-0.0841008 -0.152597 0.00169569
9.95017e-018 1.96332e-017 -4.71337e-019
-0.073515 -0.139866 -0.000105628
-0.288157 -0.32544 -0.031597
-0.269055 -0.486827 -0.0342524
-0.118786 -0.184467 -0.0159672
-0.221625 -0.281964 -0.0387755
-0.287106 -0.416825 -0.0337012
-0.198101 -0.273247 -0.0256835
-0.224972 -0.368595 -0.0417705
-0.133768 -0.207072 -0.0226519
-0.212866 -0.364311 -0.0305507
0.470667 0.00160945 8.46461e-005
-9.83378e-029 -2.69683e-031 3.55102e-031
-4.03182e-029 -1.89759e-031 5.41372e-032
0.483818 0.00210308 -0.000744028
0.307042 0.00245439 -0.000898951
0.290159 0.00241394 0.000644832
0.490782 0.00258508 -0.00106848
4.2966e-029 -8.49185e-030 -1.0669e-028
0.401654 -0.00144764 -0.00158959
0.353226 -0.000374481 -0.000336877
-1.766e-029 2.58186e-032 1.65091e-032
-4.68019e-029 1.35788e-032 -6.94811e-033
-8.73785e-029 4.54109e-032 5.07261e-032
1.34277e-029 4.81662e-029 8.48782e-029
0.294667 -0.000461763 -0.000207793
6.39991e-017 3.1766e-019 -3.40277e-020
0.322982 0.000663163 0.000445081
-3.02994e-017 -1.00825e-019 2.95499e-020
0.294762 -7.75157e-005 -0.000409116
-2.64578e-029 4.79578e-032 -3.14515e-032
-5.13114e-029 5.58202e-032 -1.1039e-031
0.512659 -0.000581358 0.000266907
-8.86569e-029 1.19907e-031 -2.14827e-031
8.3853e-017 -2.09347e-019 4.16162e-019
0.386961 -0.000886249 0.000775662
-6.61459e-017 3.72718e-019 -1.68517e-019
0.397701 -0.000723461 0.00197991
3.14156e-017 5.69316e-020 2.07919e-019
0.377303 -0.00226653 0.000651831
0.469753 0.00114934 -0.000621667
-9.81302e-029 4.13601e-032 1.00494e-031
0.539392 8.65397e-005 -7.11594e-005
0.344337 0.000249944 -0.000345594
0.472723 0.00199016 0.000424229
0.376412 -0.00155246 0.00111236
0.546033 0.00196957 -0.000950094
0.383052 0.000804083 -0.000343991
1.30563e-029 1.25059e-031 -1.02799e-031
-0.347479 -0.00529439 0.00475534
7.81896e-017 2.94048e-018 -1.14524e-018
-0.462674 -0.00486199 0.00487713
-0.754998 -0.0106593 0.00460506
1.2629e-030 -6.10391e-029 4.08551e-030
1.47069e-031 -1.12707e-028 7.37215e-030
-0.00980938 0.693999 -0.0447615
0.000123538 0.703817 -0.0455375
-0.0121946 0.487082 -0.0331515
1.39837e-018 -9.57564e-017 6.49321e-018
-0.008092 0.582778 -0.0381903
0.000622829 0.516551 -0.00410087
0.0119509 0.278294 0.00189521
0.00408731 0.522223 -0.0102698
0.000101228 0.35436 -0.00109869
0.00907522 0.424559 -0.000347295
0.00327078 0.521343 -0.00738431
0.00029938 0.43953 -0.00153692
0.00829739 0.416161 -0.00370397
0.0051107 0.342894 0.000263336
0.0018271 0.453946 -0.00451422
0.00721645 0.267837 0.0058454
0.00181309 0.376558 0.00465052
0.000908864 0.28572 0.00267511
8.56957e-029 1.5923e-030 6.88727e-031
1.4407e-028 2.8977e-030 1.00919e-030
2.57318e-029 2.99546e-031 1.25441e-031
-0.631224 -0.00809337 -0.00371227
-0.595162 -0.00887252 -0.00594594
-0.594854 -0.0100199 -0.00361202
-1.35959e-016 3.43978e-019 -1.91454e-018
-1.60607e-016 -2.95743e-018 -1.37503e-018
-1.526e-016 -3.13044e-018 -1.87101e-018
7.46293e-031 2.8283e-030 -6.21014e-032
-0.164713 -0.492744 -0.00420879
4.17272e-030 2.08231e-029 1.37444e-031
1.56999e-030 7.70648e-030 -1.3891e-031
-0.0952834 -0.358992 0.00659108
4.52559e-030 -4.26348e-030 -2.73534e-029
-4.30577e-017 -2.11245e-016 7.44349e-018