# vtk DataFile Version 2.0 
output.vtk, Created by Freefem++, via gregorio
ASCII
DATASET UNSTRUCTURED_GRID
POINTS 7451 double
-3.79965 2.23652 0.040848
-4.13429 2.05574 0.276253
-4.09122 2.24524 0.070091
-4.01836 2.27766 0.330071
-3.96697 2.14613 0.158551
-3.94543 2.24088 0.0554695
-3.90901 2.25709 0.185459
-4.11275 2.15049 0.173172
-4.07633 2.1667 0.303162
-4.05479 2.26145 0.200081
-4.81817 0.732763 -0.840268
-4.76136 0.37264 -0.736193
-5.12328 0.495929 -0.550642
-4.73872 0.559667 -0.434419
-4.78977 0.552702 -0.788231
-4.97072 0.614346 -0.695455
-4.77845 0.646215 -0.637344
-4.94232 0.434285 -0.643417
-4.75004 0.466153 -0.585306
-4.931 0.527798 -0.49253
-7.58244 -0.891248 -0.453516
-8 -0.559587 0.124298
-7.26059 -0.264226 0.250847
-7.58828 -0.999993 0.00381
-7.79122 -0.725418 -0.164609
-7.42152 -0.577737 -0.101334
-7.58536 -0.94562 -0.224853
-7.6303 -0.411906 0.187573
-7.79414 -0.77979 0.064054
-7.42444 -0.632109 0.127328
-5.46564 0.048234 0.998836
-5.51396 -0.351144 0.936321
-5.02851 -0.125769 0.598961
-5.56665 -0.148801 0.504295
-5.4898 -0.151455 0.967578
-5.24708 -0.0387675 0.798898
-5.51614 -0.0502835 0.751565
-5.27124 -0.238457 0.767641
-5.5403 -0.249972 0.720308
-5.29758 -0.137285 0.551628
-4.20269 -2.80441 0.102764
-3.63085 -2.57461 -0.287529
-4.13183 -2.29387 0.255347
-4.14432 -2.47254 -0.273935
-3.91677 -2.68951 -0.0923825
-4.16726 -2.54914 0.179055
-4.1735 -2.63848 -0.0855855
-3.88134 -2.43424 -0.016091
-3.88759 -2.52358 -0.280732
-4.13807 -2.38321 -0.009294
-6.25062 -0.085247 0.575431
-6.51584 -0.423084 -0.15939
-6.46019 0.447486 0.293263
-6.75561 -0.174737 0.413139
-6.38323 -0.254165 0.20802
-6.35541 0.181119 0.434347
-6.88822 -0.343655 0.0457285
-6.86039 0.09163 0.272055
-6.48801 0.012201 0.0669365
-4.88162 0.371746 0.655425
-4.51246 -0.112716 0.623981
-4.65723 0.09269 0.995695
-4.69704 0.129515 0.639703
-4.95507 0.122989 0.627193
-4.76942 0.232218 0.82556
-4.77049 -0.119243 0.611471
-4.58484 -0.010013 0.809838
-4.84287 -0.0165395 0.797328
-3.75099 1.20677 0.090288
-3.64118 0.745776 0.266863
-4.09568 0.790235 0.315934
-3.78936 1.07086 0.69071
-3.69609 0.976272 0.178575
-3.92333 0.998502 0.203111
-3.77017 1.13882 0.390499
-3.86843 0.768006 0.291399
-3.71527 0.908319 0.478787
-3.94252 0.930549 0.503322
-2.18572 0.40145 0.915881
-1.75478 0.245881 0.526965
-1.94554 -0.013967 0.999902
-1.76886 0.356252 0.93439
-1.97025 0.323665 0.721423
-2.06563 0.193741 0.957891
-1.97729 0.378851 0.925135
-1.85016 0.115957 0.763433
-1.76182 0.301067 0.730678
-1.8572 0.171143 0.967146
-5.06116 0.824959 0.710182
-4.88551 0.773989 0.80113
-4.92155 0.772883 0.437198
-5.01596 0.602336 0.857802
-4.97333 0.799474 0.755656
-4.99135 0.798921 0.57369
-5.03856 0.713647 0.783992
-4.90353 0.773436 0.619164
-4.95074 0.688163 0.829466
-4.96876 0.687609 0.6475
-2.34262 2.51752 0.051733
-2.4672 2.85727 -0.311185
-2.29554 2.81673 0.086134
-2.65762 2.74748 0.16058
-2.40491 2.6874 -0.129726
-2.31908 2.66712 0.0689335
-2.50012 2.6325 0.106157
-2.38137 2.837 -0.112526
-2.56241 2.80238 -0.0753025
-2.47658 2.7821 0.123357
-3.50303 -3.76846 -0.636668
-3.49422 -3.29308 -1.15018
-3.31427 -3.71149 -1.25136
-2.90724 -3.34218 -0.858121
-3.49863 -3.53077 -0.893424
-3.40865 -3.73997 -0.944014
-3.20514 -3.55532 -0.747394
-3.40425 -3.50228 -1.20077
-3.20073 -3.31763 -1.00415
-3.11076 -3.52683 -1.05474
-4.0054 2.49156 -0.125899
-3.5956 2.50054 -0.194198
-3.83412 2.54803 0.0159
-3.8005 2.49605 -0.160049
-3.90253 2.36404 -0.0425255
-3.91976 2.5198 -0.0549995
-3.69763 2.36853 -0.076675
-3.71486 2.52428 -0.089149
-3.81689 2.39228 0.028374
-3.73452 -3.68531 -1.05781
-3.52439 -3.6984 -1.15459
-3.61437 -3.4892 -1.104
-3.61877 -3.72688 -0.84724
-6.37864 0.944563 0.328331
-6.25891 0.813305 0.581838
-6.65332 0.772267 0.635298
-6.31878 0.878934 0.455085
-6.41941 0.696025 0.310797
-6.51598 0.858415 0.481815
-6.35955 0.630395 0.43755
-6.45612 0.792786 0.608568
-6.55675 0.609877 0.46428
1.62066 -0.841518 -0.540229
1.89324 0.238579 -0.195511
2.01627 -0.690819 -0.723027
2.25185 -0.211859 0.261412
1.75695 -0.30147 -0.36787
1.81846 -0.766169 -0.631628
1.93625 -0.526689 -0.139408
1.95475 -0.22612 -0.459269
2.07254 0.01336 0.0329505
2.13406 -0.451339 -0.230807
-2.56949 2.06853 0.305158
-2.91403 1.60744 0.564909
-3.02709 2.08175 0.021586
-2.87501 2.07662 0.630995
-2.74176 1.83799 0.435033
-2.79829 2.07514 0.163372
-2.72225 2.07258 0.468077
-2.97056 1.8446 0.293247
-2.89452 1.84203 0.597952
-2.95105 2.07919 0.32629
-5.39985 0.358755 0.933432
-5.34934 0.453264 0.543553
-5.56264 0.558471 0.829524
-5.70805 0.297641 0.954678
-5.37459 0.40601 0.738492
-5.48124 0.458613 0.881478
-5.55395 0.328198 0.944055
-5.45599 0.505868 0.686538
-5.52869 0.375452 0.749116
-5.63535 0.428056 0.892101
-4.17913 0.323834 -0.696515
-4.36183 0.516245 -0.417662
-4.60784 0.019305 -0.528365
-4.46586 0.364911 -0.72315
-4.27048 0.42004 -0.557088
-4.39349 0.17157 -0.61244
-4.3225 0.344372 -0.709832
-4.48483 0.267775 -0.473013
-4.41384 0.440578 -0.570406
-4.53685 0.192108 -0.625757
-5.9377 0.438799 -0.558905
-5.87927 0.529091 -0.848565
-6.25926 0.555743 -0.831354
-6.07929 0.245277 -0.969453
-5.90849 0.483945 -0.703735
-6.09848 0.497271 -0.695129
-6.00849 0.342038 -0.764179
-6.06927 0.542417 -0.839959
-5.97928 0.387184 -0.909009
-6.16928 0.40051 -0.900404
-3.64743 2.72944 0.180305
-3.74077 2.63873 0.0981025
-3.72354 2.48298 0.110576
-3.62151 2.61499 -0.0069465
-3.98168 0.388062 0.141859
-3.76543 0.320245 0.603448
-3.81143 0.566919 0.204361
-3.70331 0.533011 0.435156
-4.03868 0.589149 0.228897
-3.87356 0.354154 0.372653
-3.93055 0.55524 0.459691
-6.17342 0.027823 -0.593282
-6.59748 0.255766 -0.966739
-6.35964 0.547779 -0.240473
-6.21634 0.291783 -0.712318
-6.42837 0.405755 -0.899047
-6.30945 0.551761 -0.535914
-6.38545 0.141794 -0.78001
-6.26653 0.287801 -0.416878
-6.47856 0.401772 -0.603606
-5.98474 0.742767 -0.66955
-5.96122 0.590783 -0.614227
-6.122 0.649255 -0.750452
-5.93201 0.635929 -0.759057
-5.86659 0.345457 -0.129882
-5.96054 -0.099592 -0.035866
-6.02 0.18664 -0.361582
-6.11312 0.446618 -0.185177
-5.91357 0.122933 -0.082874
-6.06698 -0.0358845 -0.314574
-6.16009 0.224094 -0.13817
-1.10421 0.363269 -0.931684
-0.773878 0.737644 -0.67519
-0.520452 0.269543 -0.962988
-0.384634 0.008888 -0.353445
-0.939043 0.550457 -0.803437
-0.812329 0.316406 -0.947336
-0.74442 0.186079 -0.642564
-0.647165 0.503594 -0.819089
-0.579256 0.373266 -0.514317
-0.452543 0.139215 -0.658216
-2.85287 -3.00249 -1.21636
-3.23054 -2.92385 -1.196
-3.06719 -3.3306 -1.25351
-2.88006 -3.17233 -1.03724
-3.06889 -3.13301 -1.02706
-2.98722 -3.33639 -1.05581
-3.0417 -2.96317 -1.20618
-2.96003 -3.16654 -1.23493
-3.14886 -3.12722 -1.22475
-3.38618 -2.05134 -0.098565
-2.37808 -2.56123 -0.134541
-2.49252 -2.47812 0.422472
-2.41131 -1.89586 0.044632
-2.88213 -2.30628 -0.116553
-2.93935 -2.26473 0.161954
-2.89875 -1.9736 -0.0269665
-2.4353 -2.51967 0.143966
-2.39469 -2.22855 -0.0449545
-2.45192 -2.18699 0.233552
-1.85713 -0.413967 0.42138
-1.65927 -0.390905 0.920431
-1.2503 -0.077569 0.384148
-1.80595 -0.084043 0.474172
-1.70702 -0.072512 0.723698
-1.50254 0.084156 0.455557
-1.7582 -0.402436 0.670905
-1.55371 -0.245768 0.402764
-1.45478 -0.234237 0.652289
-2.09043 2.55218 0.167395
-2.0659 2.66009 -0.048555
-2.19298 2.68445 0.126765
-2.18072 2.73841 0.0187895
-2.07816 2.60614 0.05942
-2.21652 2.53485 0.109564
-2.20426 2.58881 0.001589
-4.01665 2.44382 0.136481
-3.97233 2.67361 0.084512
-3.92539 2.49592 0.0761905
-3.99449 2.55872 0.110496
-4.01103 2.46769 0.005291
-3.90323 2.61082 0.050206
-3.98887 2.58259 -0.0206935
-3.92754 1.80484 -0.220103
-4.28096 1.83407 -0.225431
-4.13592 1.88983 -0.461486
-4.146 2.03152 -0.278406
-4.10425 1.81945 -0.222767
-4.03173 1.84734 -0.340795
-4.03677 1.91818 -0.249254
-4.20844 1.86195 -0.343458
-4.21348 1.9328 -0.251918
-4.14096 1.96068 -0.369946
-4.04038 -5 0.949212
-3.62468 -5 1.26221
-3.84559 -4.54287 1.07336
-3.71487 -5 0.728948
-3.83253 -5 1.10571
-3.94299 -4.77144 1.01129
-3.87763 -5 0.83908
-3.73513 -4.77144 1.16779
-3.66977 -5 0.99558
-3.78023 -4.77144 0.901156
-1.37334 0.812082 -0.583544
-0.975724 0.961208 -0.275823
-1.19336 -0.166381 -0.273753
-1.17453 0.886645 -0.429683
-1.07361 0.774863 -0.629367
-1.28335 0.32285 -0.428648
-0.874801 0.849426 -0.475506
-1.08454 0.397413 -0.274788
-0.983618 0.285631 -0.474471
-3.83515 -1.82017 -0.741539
-3.34976 -1.58414 -0.592596
-3.50394 -2.07825 -1.02313
-3.59245 -1.70215 -0.667067
-3.66955 -1.94921 -0.882335
-3.61067 -1.93575 -0.420052
-3.42685 -1.83119 -0.807863
-3.36797 -1.81774 -0.345581
-3.44506 -2.06479 -0.560848
-2.72946 0.769161 0.094533
-2.75119 0.681139 -0.326037
-2.98528 1.02631 -0.281501
-3.08113 0.734324 -0.34324
-2.74032 0.72515 -0.115752
-2.85737 0.897737 -0.093484
-2.90529 0.751742 -0.124353
-2.86823 0.853726 -0.303769
-2.91616 0.707731 -0.334639
-3.03321 0.880319 -0.31237
-2.94023 -2.47675 -0.674772
-3.14499 -2.03044 -0.633684
-3.22209 -2.2775 -0.848951
-3.16321 -2.26404 -0.386669
-3.03914 -4.25341 0.579285
-2.64287 -3.80807 0.20828
-2.47531 -4.18593 0.714333
-2.97264 -3.41482 0.618231
-2.84101 -4.03074 0.393783
-2.75723 -4.21967 0.646809
-3.00589 -3.83412 0.598758
-2.55909 -3.997 0.461307
-2.80776 -3.61144 0.413255
-2.72397 -3.80037 0.666282
-2.39684 -0.595487 -0.803365
-1.98884 -0.54749 -0.836812
-2.24172 -0.466498 -0.098067
-2.21295 -0.01831 -0.514797
-2.19284 -0.571489 -0.820088
-2.31928 -0.530992 -0.450716
-2.3049 -0.306899 -0.659081
-2.11528 -0.506994 -0.46744
-2.1009 -0.2829 -0.675804
-2.22734 -0.242404 -0.306432
-3.36239 -4.55484 -1.31864
-3.11171 -4.25429 -0.873787
-2.86199 -4.55394 -1.36046
-2.79118 -5 -0.96439
-3.23705 -4.40456 -1.09621
-3.11219 -4.55439 -1.33955
-3.07678 -4.77742 -1.14151
-2.98685 -4.40411 -1.11712
-2.95144 -4.62714 -0.919088
-2.82658 -4.77697 -1.16243
-3.88203 2.65205 -0.416886
-3.48121 2.84727 -0.340672
-3.82273 3 -0.474998
-3.72541 2.76868 -0.627028
-3.68162 2.74966 -0.378779
-3.85238 2.82603 -0.445942
-3.80372 2.71037 -0.521957
-3.65197 2.92364 -0.407835
-3.60331 2.80798 -0.48385
-3.77407 2.88434 -0.551013
[...]
POINT_DATA 7451
 
FIELD FieldData 2
velocity 3 7451 double
-0.117549 -0.339532 0.00684738
1.44635e-030 3.24136e-030 -1.38148e-031
4.29271e-031 1.17472e-030 -3.95648e-032
1.20225e-030 3.19174e-030 -1.26426e-031
-0.0797167 -0.193925 0.00819609
-0.07049 -0.194685 0.00652941
-0.0764494 -0.218972 0.00900333
-1.80787e-018 -4.32716e-018 2.23468e-019
5.36257e-018 1.31058e-017 -7.91182e-019
1.8666e-029 -7.97349e-030 -4.36043e-030
8.43604e-030 2.85605e-030 -1.66739e-031
-0.392165 -0.10656 0.00041497
-0.597142 -0.137976 0.00566407
-0.669951 -0.219749 0.00477582
-0.217549 -0.0752275 0.00610641
-0.293362 -0.0907279 0.00848425
-0.387238 -0.142426 0.0077209
-0.510084 -0.130308 0.00573392
-0.563648 -0.168264 0.00419954
-0.642834 -0.184947 0.00650696
9.02043e-029 -2.54278e-031 2.56406e-032
-0.805562 0.00686511 -0.000567296
-1.0432 -4.61893e-005 -0.000413244
5.22084e-029 -2.02931e-031 4.72909e-032
-0.526803 0.00301606 -5.31306e-005
-0.795455 -0.000227061 -0.0024091
-1.28615e-016 2.07e-019 -3.10465e-019
-0.954765 0.00113541 -3.71083e-005
-0.458525 0.00598195 -0.000848367
-0.707564 0.00178352 -0.000166579
3.07901e-029 3.0468e-030 5.49365e-032
2.03055e-029 1.2317e-030 2.5196e-031
-0.666895 -0.0919056 -0.0117729
-0.839424 -0.0550708 -0.0043935
-1.41513e-016 -6.41167e-018 -1.47226e-018
-0.404814 -0.0443772 -0.00369097
-0.502996 -0.0309087 -0.00326821
-0.386482 -0.0285442 -0.00698919
-0.483223 -0.0212666 -0.00481731
-0.758493 -0.075729 -0.00723398
-4.08529e-030 -6.23047e-029 7.8588e-031
0.0272518 0.47883 0.00967918
-4.47761e-030 -7.33679e-029 1.09241e-030
-8.33372e-031 -1.02365e-029 -1.36829e-031
0.0240369 0.301066 0.000828697
-5.10157e-017 -5.62262e-016 1.20908e-017
-4.1291e-018 -4.18268e-017 -3.37112e-020
0.0272223 0.347552 -0.000340517
0.0232571 0.279398 0.00428577
-5.92636e-017 -6.23189e-016 1.43817e-018
-0.789499 -0.015022 -0.00240508
-0.949082 -0.0096305 -0.00143541
-0.858328 -0.0120058 -0.00138032
-0.957939 -0.00273753 -0.000993403
-1.07011 -0.0160734 -0.00274157
-0.93444 -0.0158628 -0.00246023
-1.05475 -0.0044627 -0.00320528
-1.106 -0.0026162 -0.000666486
-1.19776 -0.0160567 -0.00158575
-0.536759 -0.1687 0.0032909
-0.54565 -0.0886021 -0.0162443
1.75318e-029 4.49515e-030 1.6319e-031
-0.593278 -0.146562 -0.00676558
-0.655779 -0.137928 -0.00345963
-0.296112 -0.0990281 0.00278928
-0.605877 -0.0977919 -0.0159688
-0.328243 -0.0826261 -0.00888283
-0.37362 -0.0756378 -0.00730437
-0.400364 -0.429759 -0.0114536
-0.431937 -0.246909 -0.0250335
-0.564533 -0.309212 -0.00658295
-0.220797 -0.263503 0.00198265
-0.430985 -0.359768 -0.0202492
-0.483299 -0.370038 -0.00949984
-0.363518 -0.378634 -0.00620548
-0.514253 -0.285452 -0.0156716
-0.356907 -0.29635 -0.0104402
-0.392283 -0.30262 -0.00122184
-1.55921e-029 -4.82996e-030 5.27959e-031
0.325081 0.0392733 -0.0014066
-1.90018e-029 -4.76973e-030 -4.40877e-031
-4.0133e-030 -1.38219e-031 -1.57382e-032
0.175001 0.02126 -0.00208075
5.63354e-017 9.24824e-019 2.51547e-018
3.01006e-018 1.35025e-019 1.10852e-020
0.200111 0.0119331 0.000292722
0.186409 0.00729755 0.00210983
-6.51957e-017 1.18181e-019 -9.04051e-019
2.40309e-017 1.09754e-017 -5.06353e-019
2.58437e-030 1.14856e-030 -3.65479e-032
-0.484292 -0.196707 0.00576251
2.76316e-030 1.10074e-030 -4.08215e-032
1.20092e-017 5.88877e-018 -2.89828e-019
-0.274403 -0.119206 0.00467142
9.44263e-017 6.53066e-017 -2.55277e-018
-0.274244 -0.129442 0.00560685
1.46229e-016 7.33632e-017 -2.56064e-018
-0.302389 -0.126205 0.00395816
-0.032018 -0.232293 -0.00830683
-0.0196301 -0.264358 -0.00627216
-0.0121175 -0.229683 -0.00377532
-0.049188 -0.473356 -0.00784173
-0.0278556 -0.272299 -0.00718697
-0.0222318 -0.232046 -0.00620307
-0.0432878 -0.365537 -0.00915349
-0.0179023 -0.274173 -0.00617034
-0.0364971 -0.399597 -0.00737648
-0.0304102 -0.368164 -0.00611358
0.0121678 0.327207 0.012964
-6.70253e-031 -2.35981e-029 -1.31634e-030
-3.34727e-031 -1.80377e-029 -1.08649e-030
-0.00180928 0.262976 0.0161391
0.00685078 0.166551 0.00976588
0.00584151 0.163618 0.00982987
0.0047915 0.329247 0.0162611
2.16863e-029 3.11183e-030 6.30664e-029
0.00199396 0.151552 0.01067
0.000863362 0.130076 0.0094281
9.30232e-031 3.50058e-030 -7.11945e-032
-0.0890989 -0.383101 0.00314455
-0.0473428 -0.226744 0.00320972
-0.0576703 -0.237734 0.00474657
-0.0591778 -0.193267 0.00410449
-0.0273315 -0.117325 0.00223432
-0.10724 -0.373149 0.00418827
-0.0746045 -0.332099 0.00408759
-0.0797394 -0.282236 0.0052554
-2.78105e-031 -5.29622e-030 -2.84205e-031
-3.87265e-018 -7.64129e-017 -5.62604e-018
3.82255e-018 6.82699e-017 4.90855e-018
0.00830592 0.15909 0.00836648
9.64192e-030 1.63083e-031 9.96021e-033
1.27709e-029 2.07368e-031 2.19684e-032
1.66516e-029 1.78909e-031 4.89116e-032
6.70274e-017 1.4718e-018 1.24488e-019
-0.498523 -0.0121563 -0.000863261
-4.55057e-030 -4.41304e-029 -2.22982e-029
-0.489471 -0.00611747 -0.000864798
-1.74989e-017 7.89192e-019 1.89606e-019
-0.4976 -0.00553661 -0.00118307
-1.3797e-028 3.62614e-031 -5.97716e-032
0.453406 0.000361298 0.000626303
-5.11197e-029 5.2185e-032 -1.19057e-031
0.44179 -0.00193063 0.00118983
0.391039 -0.00135916 0.00029182
-6.30937e-017 7.52134e-020 -2.76817e-019
0.353793 -0.000349932 0.00121486
0.370732 0.000479085 0.000856419
0.499548 -0.00105654 0.00148564
0.373933 -0.00121957 0.00160373
-0.0757737 -0.301247 -0.0167661
-0.109095 -0.291018 -0.0217088
-0.160908 -0.525435 -0.0145692
-0.0826037 -0.338712 -0.0128106
-0.0996513 -0.320067 -0.0206022
-0.126456 -0.455755 -0.0191423
-0.0868654 -0.34768 -0.0171786
-0.165254 -0.471747 -0.0211301
-0.0989528 -0.321216 -0.0174698
-0.140165 -0.496591 -0.0171378
2.92088e-030 3.77289e-031 -6.25632e-032
-0.637935 -0.113989 0.00841399
6.315e-030 4.93023e-031 -1.07373e-031
2.79071e-029 1.79901e-030 -1.37384e-031
-0.361535 -0.046656 0.00960055
-9.44501e-017 -7.44723e-018 3.29465e-018
1.31306e-016 6.0886e-018 -3.86662e-018
-0.349822 -0.0412775 0.00829393
-0.364832 -0.0292293 0.00660333
-2.14302e-017 -7.29027e-019 7.62402e-019
-0.38451 -0.0996662 -0.0133366
-0.649144 -0.219639 -0.00921174
-0.691686 -0.107034 -0.00526979
-0.389722 -0.115327 -0.00507014
-0.537711 -0.161805 -0.0121825
-0.554091 -0.113696 -0.0100098
-0.391399 -0.111675 -0.00899944
-0.703736 -0.16411 -0.00968863
-0.549058 -0.173963 -0.00595412
-0.564296 -0.123028 -0.0056411
-0.598521 -0.0141395 0.0010725
3.14223e-030 4.21831e-032 -2.94304e-033
2.78635e-029 3.77005e-031 -1.259e-031
1.28531e-029 1.93597e-031 -2.08483e-032
-0.32423 -0.00374459 0.000878858
-0.321689 -0.00653144 0.00248235
-0.35081 -0.00464594 0.0017178
-2.30921e-016 -2.13582e-018 1.8818e-018
-1.11234e-016 -3.90966e-019 9.15007e-019
-1.03305e-029 -2.0952e-029 4.70069e-029
-0.0556675 -0.37735 0.0039231
-0.0536304 -0.310991 0.00381615
-0.0826305 -0.356042 0.00473318
-0.07673 -0.409742 0.00314372
-0.694105 -0.139952 -0.0249504
-0.381965 -0.0445757 -0.00781957
-0.562589 -0.18998 -0.026625
-0.430655 -0.137811 -0.0184734
-0.648228 -0.242612 -0.0168038
-0.574651 -0.0924853 -0.0177306
-0.509453 -0.192917 -0.00925012
-0.771532 -0.0111917 0.000490906
-3.5194e-017 2.86836e-020 7.30799e-020
-0.772967 -0.00958978 0.00250454
-0.485162 -0.00778767 0.00268637
-2.32576e-029 -2.99349e-029 5.89946e-029
-0.485837 -0.00610426 0.00402437
-0.440944 -0.00810219 0.00161594
-0.894676 -0.0134423 0.00244742
-0.564475 -0.00331116 0.0026751
5.07669e-030 9.72696e-032 1.69205e-033
-0.328747 -0.00676848 0.00146747
-7.45006e-017 -1.32171e-018 1.51593e-018
-9.84386e-017 -9.58272e-019 5.03743e-019
-1.05445 -0.0492141 0.00131069
-1.17571 -0.0395103 -0.0025893
-1.00429 -0.0269851 8.10134e-005
-0.929396 -0.0222849 0.00211552
-1.17563 -0.0482756 -0.000313321
-1.07666 -0.0265896 -0.00125223
-1.12183 -0.0269163 0.000773413
1.88789e-017 -1.67278e-019 -3.00817e-019
-4.5229e-029 3.13035e-031 4.25292e-031
-1.68331e-029 3.59527e-032 9.01561e-032
0.445541 -0.00341841 -0.000892751
-2.90036e-017 2.87847e-019 4.1241e-019
1.25386e-029 -3.16977e-029 9.58628e-029
0.275392 -0.00241515 -0.00281643
-2.99762e-017 8.03612e-020 3.09097e-019
0.307798 -0.00300165 -0.0022874
0.278453 0.000318012 -0.00190697
8.44562e-032 -7.87266e-030 -6.33999e-031
-3.17311e-031 -2.48252e-029 -1.61266e-030
-4.52196e-033 -2.88655e-030 -2.18288e-031
-0.00134019 0.130976 0.00982523
0.00214075 0.138866 0.0112189
5.7253e-006 0.126526 0.00900385
-7.57264e-019 -7.24197e-017 -5.76189e-018
-9.54396e-020 2.79808e-017 2.38909e-018
-1.35497e-018 -5.94653e-017 2.69856e-018
0.0214415 0.748263 0.00446303
-0.0257213 0.548365 0.00654655
-0.0254878 0.628098 -0.0226233
-0.0273722 0.664323 -0.00681287
-0.00740079 0.794078 0.00808749
-0.00384012 0.861408 -0.0105096
-0.0068458 0.873759 -0.000837475
-0.0270797 0.641925 -0.00564758
-0.0266973 0.607221 0.00198936
-0.0277892 0.6707 -0.0161207
0.348914 0.13954 0.0190759
-2.47395e-029 -1.26715e-030 -1.22739e-031
0.4285 0.0106976 -0.00247861
0.383629 0.0866044 0.00227481
0.233678 0.00472569 -0.000310314
0.396125 0.0251345 6.11626e-005
0.18941 0.00389313 0.00675882
0.390624 0.0421367 -0.00280059
0.256353 0.000265408 -0.00305378
-1.97476e-018 -2.58757e-017 -5.8859e-019
1.05683e-031 1.21642e-030 3.87501e-032
-0.00747615 -0.115688 -0.00226922
-0.00800256 -0.113817 -0.00234155
-4.1833e-018 -5.09205e-017 -1.2093e-018
-0.0160579 -0.125227 -0.00445868
-0.0149104 -0.120909 -0.00543826
-7.18469e-018 -2.88466e-017 7.68171e-019
2.69461e-031 1.7065e-030 -2.4839e-032
-0.0302864 -0.129534 0.00286408
1.21491e-017 6.41878e-017 -9.08738e-019
2.00535e-029 -6.57935e-030 -1.30037e-031
-0.0207422 -0.128376 0.000787078
2.16736e-017 1.17531e-016 -1.25814e-018
-0.177978 -0.295321 0.00596245
1.4022e-030 1.9883e-030 -8.50511e-032
6.69893e-031 1.09785e-030 -4.28348e-032
5.02162e-031 8.89415e-031 -3.52809e-032
-0.110038 -0.16873 0.00730619
-0.101317 -0.165245 0.00662071
-0.0983234 -0.170002 0.00655291
-5.0725e-017 -7.72335e-017 4.53736e-018
-3.18071e-016 -4.51941e-016 2.89845e-017
-1.96557e-016 -3.3322e-016 1.81053e-017
-1.07619e-031 -2.95548e-030 1.01962e-031
-1.51651e-031 -7.83073e-030 3.29364e-031
-5.11536e-031 -1.4285e-029 6.73989e-031
0.00856179 0.320076 -0.00823676
-2.86312e-018 -1.09514e-016 4.73385e-018
-4.8412e-019 -1.29304e-017 6.0565e-019
0.00552259 0.181797 -0.00552143
2.54309e-018 2.32336e-017 -1.24797e-018
0.00475878 0.207759 -0.00851806
0.00748382 0.211291 -0.00951285
-5.2175e-029 -4.1076e-031 9.83776e-031
-5.47389e-029 1.71406e-031 5.18646e-031
0.448393 -0.00646894 -0.000477212
2.38871e-017 9.77361e-020 -5.25804e-019
-2.6047e-017 1.06045e-019 5.3289e-019
0.361674 -0.00102025 -0.00706727
-5.93047e-017 4.08016e-019 5.67675e-019
0.395404 -3.38918e-005 -0.00490116
0.349356 -0.00419626 -0.00313135
6.3299e-020 1.00245e-018 5.58649e-020
0.00742822 0.441646 0.0216006
-2.20996e-030 -6.59664e-029 -2.87214e-030
0.00867473 0.240068 0.0134118
-9.50569e-018 -7.20439e-017 -1.14743e-017
0.0204665 0.426296 0.0144477
0.00810755 0.20503 0.014555
0.0149413 0.637314 0.0172638
0.0163895 0.4247 0.0193316
0.0223735 -0.0582847 -0.028035
0.0199003 -0.0053135 -0.0217636
-0.121145 -0.210879 -0.0237381
-0.126132 -0.0965805 -0.0329712
0.0196302 -0.0411288 -0.0273906
-0.0560226 -0.157559 -0.0289199
-0.0562291 -0.0986531 -0.0340157
-0.0409326 -0.0920666 -0.0220705
-0.0464672 -0.0490358 -0.0277614
-0.117643 -0.157786 -0.0289024
-0.00195471 0.417802 0.022243
0.0072251 0.46117 0.0227558
0.00740608 0.248908 0.0158513
0.0090612 0.646596 0.019569
0.000670743 0.559598 -0.0175043
-0.0153327 0.631214 -0.0066888
-0.0149196 0.423229 -0.0196416
-0.000828638 0.60356 -0.0268545
-0.00757082 0.635138 -0.0126276
-0.00856482 0.529718 -0.0200533
0.000326417 0.582287 -0.0229622
-0.0170905 0.558427 -0.0143614
-0.00950439 0.658109 -0.015295
-0.0111343 0.536276 -0.0242206
1.74878e-017 5.56456e-017 3.76216e-018
5.42582e-017 1.43599e-018 -3.8931e-020
0.380482 0.446231 -0.0161118
0.285486 0.11788 -0.0209979
-2.6684e-017 -2.03539e-018 4.14569e-029
0.255889 0.309171 -0.0129052
0.192911 0.117765 -0.0168116
0.287344 0.174907 -0.0171661
0.221378 0.0608611 -0.0121996
0.364134 0.26507 -0.022763
9.28252e-019 2.21419e-017 1.68736e-018
0.00229352 0.251131 0.0114427
2.02705e-031 -1.5595e-029 -6.46026e-031
-0.00184142 0.189002 0.00460775
0.00266362 0.112642 0.00666028
1.63892e-018 3.25028e-017 4.07877e-018
0.000669742 0.101843 0.00404225
6.45662e-005 0.112262 0.0061335
-0.000657794 0.225322 0.00713304
-0.00112045 0.088852 0.00344006
6.23295e-031 3.48169e-030 -6.1587e-032
-0.0414977 -0.340914 0.00244559
5.93421e-031 1.12611e-029 -1.22927e-031
9.95665e-031 5.11649e-030 -8.37663e-032
-0.028256 -0.199451 0.00343956
-2.92811e-017 -2.54753e-016 5.27031e-018
2.2291e-029 -4.95798e-030 1.55428e-029
-0.0181852 -0.194536 0.0024076
-0.0264113 -0.185498 0.00167301
-2.36719e-017 -2.08032e-016 2.83674e-018
0.480208 -0.000277713 -0.000106421
-1.9164e-029 2.20276e-032 -5.78918e-033
-1.99175e-029 1.59913e-032 4.97647e-033
-3.38868e-029 4.74416e-032 6.25984e-033
0.328139 0.000168304 -4.6924e-005
0.329546 -0.000155205 -0.000233059
0.327559 -0.000227229 2.50216e-005
1.34653e-029 -6.7482e-020 1.00707e-019
1.21989e-029 -1.40891e-020 -5.51852e-021
2.4185e-017 -1.41269e-020 -1.38529e-030
0.184295 0.677807 -0.0327337
-0.0146072 0.828655 -0.0110403
-0.0191773 0.797265 -0.0607009
0.0337588 0.736465 0.00480613
0.0833087 0.861197 -0.0313025
0.0603644 0.775133 -0.0521053
0.12824 0.804331 -0.0257978
-0.0210417 0.922508 -0.0403438
0.0481077 0.841971 -0.0048263
0.0386063 0.921549 -0.0355438
-7.1481e-029 9.03569e-032 3.88824e-032
-4.22515e-029 8.91957e-032 1.14079e-031
-5.23261e-029 3.78795e-031 -7.001e-033
0.442338 -0.00355211 -0.000218351
1.87112e-017 -3.08094e-022 -1.0592e-019
1.86017e-017 -2.46762e-022 -7.72296e-022
0.351773 4.11377e-005 -0.00140304
8.61354e-019 1.04096e-028 3.42399e-030
0.315208 0.000383963 -0.00122978
0.357586 -0.00214833 0.000257519
7.8139e-030 4.50188e-030 -1.79417e-031
-0.372364 -0.220456 0.00902679
2.6662e-030 1.55464e-030 -7.77385e-032
-0.255381 -0.161512 0.00739213
-0.248793 -0.131666 0.00581674
5.48441e-016 3.65767e-016 -2.17428e-017
-0.428658 -0.212006 0.0071184
-0.226018 -0.145603 0.00882505
-0.239023 -0.129509 0.00585343
-0.798019 0.000482793 0.00559719
1.70438e-028 -1.7261e-031 -2.41535e-031
1.27386e-029 -7.51059e-032 -1.57554e-031
-0.796724 0.00459792 0.00268165
-0.530081 0.002172 0.00251967
-0.478552 -0.000673514 0.00599756
-0.880963 0.0035152 0.0032398
-2.20405e-029 3.27219e-029 6.0916e-029
-0.450973 0.00383913 0.00163345
-0.482423 0.00587996 0.00326652
-3.43445e-029 3.62956e-031 2.77762e-031
-1.26427e-029 2.06661e-031 1.64626e-031
-1.9617e-029 -6.99758e-031 1.51011e-031
-4.38299e-017 1.78667e-018 4.17311e-019
-1.1391e-018 1.79371e-020 4.08497e-020
0.283178 -0.00284648 -0.00217826
-1.56685e-017 3.82815e-019 6.00742e-019
0.26197 -0.00529337 -0.00221158
0.27245 0.00281969 -0.0113033
-7.46732e-029 1.04375e-030 -1.36341e-031
0.35948 -0.00541582 -0.000185623
0.301323 -0.0074659 0.00117362
0.325887 -0.00590133 0.000572367
0.495805 -0.00624431 -0.000581569
0.511394 -0.0044119 -0.000292762
0.451306 -0.00754878 -0.000799284
-1.64202e-029 -7.11616e-032 1.69726e-033
-3.08306e-029 4.31281e-031 -1.156e-032
5.1541e-017 -2.33952e-018 -2.72705e-019
4.48588e-017 -1.82746e-018 -3.04888e-019
0.264635 -0.00353612 -0.000680408
4.03536e-018 -1.87947e-019 -4.69856e-020
0.271925 -0.00424541 -0.00274952
-5.72874e-029 1.68217e-031 2.21242e-031
0.441827 0.00160878 -0.000610714
-3.81725e-029 9.95771e-032 9.709e-032
0.27372 -0.0012719 -0.000713132
-9.26868e-017 4.82493e-020 6.47249e-019
0.349581 -0.00231397 -0.00171043
0.284828 9.66188e-005 -0.000732339
0.463035 -0.00100748 -0.000712245
0.300615 0.000942332 -0.00209879
-1.53935e-029 1.13313e-031 -1.25879e-031
-4.52307e-029 1.36645e-032 -2.99653e-031
-5.26795e-029 2.97583e-031 -2.5341e-031
3.18514e-017 -5.05074e-019 8.05661e-019
-3.42835e-017 5.8663e-019 -7.65774e-019
0.276812 -0.00360061 0.00552437
-2.23775e-017 3.21443e-019 -3.73208e-019
0.287694 -0.00281341 0.00376197
0.287607 -0.00324279 0.00274366
1.41e-030 -8.41609e-030 3.29253e-031
-0.174882 0.123902 -0.0179047
1.87837e-030 -3.91966e-030 4.37338e-031
0.0697972 0.236735 -0.0207115
-0.059237 0.0878231 -0.00487762
-1.38666e-017 -4.0445e-018 -2.88088e-020
0.00698203 0.143607 -0.0054939
-0.0665358 0.0448735 -0.00436598
-0.0681398 0.19476 -0.0172506
-0.00496588 0.0814257 -0.00623238
-6.27926e-030 -3.10927e-030 -6.35986e-031
-5.01009e-029 -6.87248e-030 -4.52491e-031
-8.42688e-030 -1.73497e-029 2.68569e-031
0.199227 0.0373535 0.029254
0.235262 0.078064 0.0153272
0.245936 0.17751 0.0421688
2.67895e-030 5.12465e-029 -3.18695e-029
5.38308e-017 4.73013e-017 1.02018e-017
-6.76308e-017 -4.09663e-017 -1.05739e-017
-2.00459e-029 -1.50825e-032 -2.56969e-032
-1.28506e-017 4.04371e-019 -7.5843e-020
4.96794e-017 -1.63143e-018 -6.77331e-021
0.292116 -0.00189266 0.00146252
-0.0932331 -0.276657 0.00259417
1.57362e-030 3.2874e-030 -4.52834e-032
-0.149004 -0.2706 -0.00389816
3.49556e-030 8.12521e-030 3.87805e-032
-0.060121 -0.141243 0.00337869
-0.125234 -0.282528 -0.000683929
-0.0604114 -0.149152 0.00216221
-0.0832276 -0.154993 0.00138185
9.97199e-018 1.97826e-017 -3.77304e-019
-0.0726445 -0.14173 -0.000252182
-0.272444 -0.325402 -0.0227809
-0.25171 -0.477701 -0.019422
-0.115047 -0.187985 -0.0122764
-0.209055 -0.282478 -0.0270576
-0.270441 -0.414693 -0.0215285
-0.188904 -0.276897 -0.0190681
-0.211943 -0.367835 -0.0263716
-0.127988 -0.209778 -0.0158282
-0.202582 -0.368486 -0.0204492
0.440298 0.0013854 0.00010287
-8.9948e-029 -2.28723e-031 3.13583e-031
-3.70247e-029 -1.68403e-031 4.54434e-032
0.452092 0.00187313 -0.0006763
0.289976 0.00217236 -0.000743019
0.274566 0.00225134 0.000617615
0.458937 0.00234606 -0.000906412
3.94271e-029 -8.26487e-030 -1.03693e-028
0.378414 -0.00137771 -0.00144775
0.33376 -0.000358877 -0.000283917
-1.62514e-029 1.82563e-032 1.4951e-032
-4.29112e-029 1.334e-032 -1.27399e-032
-7.99345e-029 1.96046e-032 3.4862e-032
1.23826e-029 4.68147e-029 8.2505e-029
0.278836 -0.000330291 -0.000245744
6.10002e-017 2.56007e-019 -2.1667e-020
0.305104 0.000660122 0.000505017
-2.87098e-017 -8.82379e-020 1.4935e-020
0.278493 2.51631e-005 -0.000319465
-2.42444e-029 3.95148e-032 -2.27436e-032
-4.69475e-029 4.13483e-032 -9.64335e-032
0.476743 -0.000499269 0.000173633
-8.09913e-029 1.12986e-031 -1.90186e-031
7.94537e-017 -1.64202e-019 3.65437e-019
0.364627 -0.000720455 0.000630099
-6.27087e-017 3.24867e-019 -1.49758e-019
0.374358 -0.000563767 0.00175923
2.96993e-017 5.57891e-020 1.93242e-019
0.355284 -0.00202384 0.000606709
0.439162 0.00118127 -0.000609573
-8.97184e-029 1.18359e-032 9.53119e-032
0.503689 0.000218299 -4.05936e-005
0.324856 0.000325306 -0.000451087
0.442477 0.00192299 0.000410726
0.354511 -0.00130429 0.00102923
0.509193 0.00183141 -0.000835269
0.360915 0.000837369 -0.000309397
1.21435e-029 1.29313e-031 -8.08661e-032
-0.33299 -0.00549878 0.00417435
7.60587e-017 3.03933e-018 -1.03951e-018
-0.442949 -0.00501173 0.00420082
-0.718282 -0.0112483 0.00348518
1.0503e-030 -4.15419e-029 2.34539e-030
1.32755e-031 -7.59272e-029 4.18708e-030
-0.00813622 0.470289 -0.0264049
-3.47231e-005 0.466496 -0.0269523
-0.0101952 0.325518 -0.019787
1.11484e-018 -5.91487e-017 3.91925e-018
-0.00653645 0.378025 -0.0226294
0.000681002 0.594762 0.00521599
0.0130387 0.338116 0.00683721
0.00443732 0.570248 -0.00113686
0.000261827 0.44817 0.00518364
0.00995575 0.506264 0.00750704
0.00379198 0.586092 0.0014449
0.000507195 0.529403 0.00618131
0.00887395 0.487116 0.00324951
0.00582955 0.42532 0.00620367
0.00234416 0.538304 0.00301756
0.00800558 0.329178 0.0108335
0.00200253 0.46405 0.0120037
0.00106553 0.360002 0.00793616
7.92264e-029 1.44968e-030 4.86642e-031
1.3279e-028 2.74832e-030 7.11544e-031
2.38459e-029 2.86879e-031 8.74466e-032
-0.600781 -0.00776846 -0.00265553
-0.56665 -0.0091291 -0.00477966
-0.566839 -0.00979017 -0.00277208
-1.29961e-016 2.08941e-019 -1.41835e-018
-1.53895e-016 -2.8296e-018 -1.04581e-018
-1.46316e-016 -3.13172e-018 -1.51746e-018
6.41681e-031 2.27244e-030 -5.18394e-032
-0.147477 -0.40624 -0.000348028
3.59204e-030 1.64939e-029 1.98803e-032
1.34509e-030 6.14156e-030 -1.12934e-031
-0.084297 -0.297159 0.00587182
4.45461e-030 -3.75718e-030 -2.65957e-029
-3.75311e-017 -1.73954e-016 5.7692e-018