# vtk DataFile Version 2.0 
output.vtk, Created by Freefem++, via gregorio
ASCII
DATASET UNSTRUCTURED_GRID
POINTS 3320 double
34 -4.0998 -2.8621
34 -4.95928 -0.63683
31.8823 -4.69417 -1.72186
34 -2.50116 -1.53143
34 -4.52954 -1.74946
32.9411 -4.39699 -2.29198
34 -3.30048 -2.19676
32.9411 -4.82672 -1.17934
34 -3.73022 -1.08413
32.9411 -3.59766 -1.62664
27.3653 -4.07312 2.89994
27.6375 -4.95724 0.652526
26.5509 -0.00315 -0.075849
25.3086 -4.68458 1.74777
27.5014 -4.51518 1.77623
26.9581 -2.03814 1.41205
26.3369 -4.37885 2.32385
27.0942 -2.48019 0.288339
26.473 -4.82091 1.20015
25.9297 -2.34387 0.835958
14.2759 3.51954 -3.55146
12.0345 2.56805 -4.29012
14.1101 -0.6185 0.045931
14.3274 1.3528 -4.81351
13.1552 3.04379 -3.92079
14.193 1.45052 -1.75276
14.3016 2.43617 -4.18249
13.0723 0.974774 -2.12209
13.181 1.96042 -4.55182
14.2188 0.36715 -2.38379
27.6924 3.22569 -3.82033
27.5647 1.01551 -4.89579
25.7918 2.1812 -4.49915
27.6286 2.1206 -4.35806
26.7421 2.70345 -4.15974
27.1216 1.61127 -1.94809
26.6783 1.59835 -4.69747
27.0578 0.50618 -2.48582
26.1713 1.08902 -2.2875
10.239 17.1685 1.15862
10.29 17.0286 -1.35141
14.885 14.2257 -0.155644
15.7525 18.0548 0.369511
10.2645 17.0985 -0.0963935
12.562 15.6971 0.501488
12.9957 17.6116 0.764065
12.5875 15.6272 -0.753526
13.0213 17.5417 -0.490948
15.3188 16.1403 0.106933
27.8113 4.1705 2.75807
25.7209 3.54494 3.5261
25.9628 4.67452 1.77451
26.7661 3.85772 3.14208
27.1811 2.08367 1.34111
26.887 4.42251 2.26629
26.1359 1.7709 1.72513
25.8419 4.10973 2.6503
26.2568 2.33568 0.849329
29.7316 -2.35531 -4.4105
29.8297 -4.13861 -2.8057
27.5694 -3.33637 -3.72406
30.1944 -0.005596 -0.060371
29.7807 -3.24696 -3.6081
28.6505 -2.84584 -4.06728
29.963 -1.18045 -2.23543
28.6995 -3.73749 -3.26488
30.012 -2.0721 -1.43304
28.8819 -1.67099 -1.89221
29.7928 3.32824 3.73133
27.443 2.38544 4.39428
28.802 3.74937 3.2447
28.6179 2.85684 4.0628
29.9936 1.66132 1.83548
27.6271 3.27797 3.57617
29.0028 2.08245 1.34885
28.8187 1.18992 2.16695
34 -4.68992 1.7334
31.9244 -4.96073 0.625407
34 -2.68272 1.00705
34 -4.8246 0.548284
32.9622 -4.96001 -0.0057115
34 -3.821 0.185112
32.9622 -4.82532 1.1794
34 -3.68632 1.37023
32.9622 -3.82173 0.81623
31.8419 -4.09867 2.86372
32.921 -4.39429 2.29856
31.8832 -4.5297 1.74456
32.921 -3.39069 1.93539
24.7136 -0.065888 -4.99957
26.1392 0.474811 -4.94768
25.2527 1.05766 -4.74936
25.6322 -0.034519 -2.53771
-5.71797 4.99999 -0.011836
-7.98177 4.79022 1.43312
-5.65927 0.560749 1.17246
-8.73705 1.40633 -0.477087
-6.84987 4.8951 0.71064
-5.68862 2.78037 0.580314
-7.22751 3.20316 -0.244461
-6.82052 2.67548 1.30279
-8.35941 3.09827 0.478015
-7.19816 0.983537 0.347688
-11.8362 0.938347 -4.91116
-10.0603 2.19935 -4.49031
-11.4462 -0.161354 -2.46728
-12.1896 3.00676 -3.99492
-10.9483 1.56885 -4.70073
-11.6412 0.388497 -3.68922
-12.0129 1.97255 -4.45304
-10.7533 1.019 -3.47879
-11.125 2.60305 -4.24261
-11.8179 1.4227 -3.2311
5.98503 -1.3392 4.81732
8.44839 -3.08559 3.93436
5.59641 -0.431001 0.448847
5.94456 -3.74902 3.3083
7.21671 -2.21239 4.37584
5.79072 -0.8851 2.63308
5.9648 -2.54411 4.06281
7.0224 -1.75829 2.1916
7.19648 -3.4173 3.62133
5.77048 -2.09001 1.87857
4.63066 1.01096 4.89673
7.16716 1.18494 4.85756
5.86352 3.84829 4.31543
5.89891 1.09795 4.87715
5.24709 2.42963 4.60608
5.11353 0.289979 2.67279
6.51534 2.51662 4.5865
6.38178 0.376969 2.6532
5.72997 1.70865 2.38214
9.97673 9.67933 3.26858
11.9401 11.3949 -0.46782
15.3992 9.64256 0.6246
12.7108 12.1642 1.95517
10.9584 10.5371 1.40038
12.688 9.66095 1.94659
11.3438 10.9218 2.61188
13.6696 10.5187 0.07839
12.3254 11.7796 0.743677
14.055 10.9034 1.28989
8.98166 -0.695967 4.95133
9.59141 -0.501016 -0.367128
8.07441 0.244486 4.90444
8.37928 0.341961 2.24522
9.28654 -0.598491 2.2921
7.28904 -0.563484 2.70009
7.59391 -0.466009 0.0408595
-15.2018 -4.58277 -1.99956
-17.6119 -4.81625 -1.34304
-17.4492 -0.038734 -0.386268
-14.8547 -1.83378 1.44681
-16.4068 -4.69951 -1.6713
-16.3255 -2.31075 -1.19291
-15.0282 -3.20828 -0.276375
-17.5305 -2.42749 -0.864654
-16.2333 -3.32502 0.051883
-16.1519 -0.936259 0.530269
7.46798 6.90219 2.94267
8.58863 9.70097 0.619638
10.7073 7.47839 0.078094
8.0283 8.30158 1.78116
9.08762 7.19029 1.51038
8.72235 8.29076 3.10562
9.64794 8.58968 0.348866
9.28268 9.69015 1.94411
10.342 8.57886 1.67334
2.84099 5.39744 0.058191
4.61679 5.55031 2.15257
8.49473 3.6191 -0.008736
3.72889 5.47387 1.10538
5.66786 4.50827 0.0247275
4.2187 2.48322 0.253519
6.55576 4.5847 1.07192
5.1066 2.55965 1.30071
7.04557 1.59405 0.220055
-12.4913 4.57943 -2.0072
-11.9851 1.19485 1.92159
-10.6142 2.99288 -1.24214
-11.9687 2.20904 -2.23724
-12.2382 2.88714 -0.042804
-10.0916 0.622486 -1.47218
-10.3611 1.30059 0.722251
-11.7156 0.516748 -0.272847
-15.7724 -7.11034 -1.16511
-14.6723 -5.81398 -3.31134
-15.0969 -7.90903 -3.14415
-11.9211 -7.00027 0.677918
-15.2224 -6.46216 -2.23823
-15.4346 -7.50968 -2.15463
-13.8467 -7.05531 -0.243598
-14.8846 -6.8615 -3.22775
-13.2967 -6.40712 -1.31671
-13.509 -7.45465 -1.23312
-14.301 3.51335 3.55758
-14.7225 4.73846 1.59592
-14.6812 1.60733 -0.540668
-14.5117 4.12591 2.57675
-14.4911 2.56034 1.50845
-13.143 2.3541 2.73958
-14.7018 3.1729 0.527626
-13.3538 2.96666 1.75875
-13.3331 1.40109 0.69046
-5.80566 -10 4.63358
-4.42428 -10 2.8238
-5.09715 -7.73596 3.40105
-6.81367 -10 3.17359
-5.11497 -10 3.72869
-5.45141 -8.86798 4.01731
-6.30967 -10 3.90358
-4.76072 -8.86798 3.11243
-5.61898 -10 2.9987
-5.95541 -8.86798 3.28732
13.0532 8.56048 0.351347
11.3237 9.43665 -0.194863
-7.0953 -2.33185 -4.42295
-8.02016 -5.82973 -0.3595
-8.81712 -2.10167 1.30104
-5.10973 -1.91714 -1.38778
-7.55773 -4.08079 -2.39122
-7.95621 -2.21676 -1.56095
-6.10252 -2.1245 -2.90537
-8.41864 -3.9657 0.470772
-6.56494 -3.87344 -0.873641
-6.96343 -2.0094 -0.0433695
-13.1192 -4.56375 -4.61525
-11.378 -5.81353 -5.55842
-13.5285 -6.67841 -4.64702
-11.0937 -3.89277 -2.85989
-12.2486 -5.18864 -5.08684
-13.3239 -5.62108 -4.63113
-12.1065 -4.22826 -3.73757
-12.4532 -6.24597 -5.10272
-11.2359 -4.85315 -4.20916
-12.3111 -5.28559 -3.75346
17.5392 6.82117 -2.17529
14.1538 8.08971 -2.35853
14.4471 6.69716 1.2007
15.8465 7.45544 -2.26691
16.4692 8.23187 -0.775344
15.9932 6.75917 -0.487296
14.7765 8.86614 -0.866965
14.3004 7.39343 -0.578917
14.9232 8.16986 0.912648
-8.29911 -4.88235 -5.34625
-9.12615 -6.29372 -5.72035
-8.71263 -5.58803 -5.5333
-9.6964 -4.38756 -4.10307
-8.15963 -5.35604 -2.85287
-10.1099 -5.09324 -4.29012
-8.57315 -6.06173 -3.03993
-9.55692 -4.86125 -1.6097
11.5396 12.5015 3.73339
12.8336 8.83145 4.84657
12.1866 10.6665 4.28998
12.1252 12.3329 2.84428
10.7582 11.0904 3.50098
12.7722 10.4978 3.40087
11.4052 9.25539 4.05757
12.0264 2.56494 4.29198
12.6521 4.08134 0.703412
12.3393 3.32314 2.4977
10.2606 3.09202 2.14162
10.8089 1.03196 1.96243
10.5734 3.85022 0.347338
11.1218 1.79016 0.168142
9.04307 1.55904 -0.187932
-5.91875 -5.83777 4.02158
-7.08019 -4.21233 4.69227
-7.69673 -6.2685 5.30514
-6.49947 -5.02505 4.35692
-6.80774 -6.05314 4.66336
-6.96945 -5.83375 1.83104
-7.38846 -5.24041 4.9987
-7.55017 -5.02103 2.16638
-7.85844 -6.04911 2.47282
-5.74006 4.11471 -2.84063
-5.72901 4.55735 -1.42623
-5.69967 2.33773 -0.834084
-7.23856 2.76052 -1.65886
-2.64547 -4.82544 1.30962
-3.59657 -3.65697 3.40978
-2.28566 -0.184461 0.823864
-0.918929 -3.88613 3.14611
-3.12102 -4.24121 2.3597
-2.46556 -2.50495 1.06674
-1.7822 -4.35579 2.22786
-2.94111 -1.92071 2.11682
-2.25775 -3.77155 3.27794
-1.60229 -2.03529 1.98499
-25.3687 4.82057 1.32745
-25.2948 4.87324 -1.1187
-23.4956 0.486621 0.296513
-23.3107 4.99238 0.275881
-25.3317 4.84691 0.104374
-24.4322 2.6536 0.81198
-24.3397 4.90648 0.801665
-24.3952 2.67993 -0.411094
-24.3027 4.93281 -0.421409
-23.4031 2.7395 0.286197
-34 1.74951 4.68393
-31.8888 2.85285 4.10624
-34 -0.269512 2.83713
-31.8611 0.524663 4.9724
-32.9444 2.30118 4.39509
-34 0.739997 3.76053
-32.9306 1.13708 4.82817
-32.9444 1.29167 3.47169
-31.8749 1.68876 4.53932
-32.9306 0.127576 3.90476
-5.81333 -3.58429 3.4861
-7.09063 -2.33638 4.42056
-6.45198 -2.96034 3.95333
-7.31522 -2.84298 2.39357
-5.7363 -1.51177 2.32928
-7.95387 -2.21902 2.8608
-6.37495 -0.887817 2.79651
-7.2382 -0.770458 1.23675
9.65025 1.76234 -4.67912
7.17592 1.18641 -4.8572
8.03 3.89591 -4.74476
8.41308 1.47438 -4.76816
8.84013 2.82913 -4.71194
9.07249 2.69072 -2.34393
7.60296 2.54116 -4.80098
7.83532 2.40276 -2.43297
8.26237 3.75751 -2.37675
-6.44676 -3.89831 4.08918
-7.08541 -3.27435 4.55641
-7.94865 -3.157 2.99666
-0.169444 1.69285 4.70471
-0.174074 -1.40138 4.7996
1.51062 0.225938 -0.004911
-0.171759 0.145736 4.75215
0.670587 0.959394 2.3499
-1.22755 0.754194 2.76429
0.668272 -0.58772 2.39734
-1.22986 -0.792919 2.81173
-0.387519 0.0207385 0.409477
-10.1755 4.10703 -2.85172
-7.95153 4.79218 -1.42655
-10.4836 4.9993 0.083535
-9.06349 4.4496 -2.13913
-9.45626 2.75668 -1.6644
-10.3295 4.55317 -1.38409
-8.34429 3.09925 -0.95182
-9.21754 4.89574 -0.671509
-9.61031 3.20281 -0.196776
-25.3924 3.59183 3.47833
-23.2553 4.29385 2.56181
-25.3806 4.2062 2.40289
-24.312 4.55721 1.94463
-24.3239 3.94284 3.02007
-24.444 2.03923 1.88742
-23.3755 2.39024 1.42916
10.1643 6.64999 4.56198
8.81613 6.77609 3.75233
7.98135 5.26065 1.46697
10.4358 7.06419 2.32004
9.32951 5.13454 2.27662
9.601 5.54875 0.034679
10.1 15.09 0
10.7565 15.09 -2.44999
10.4282 15.09 -1.22499
11.02 13.2425 -0.23391
12.4925 14.6579 -0.077822
11.3483 13.2425 -1.4589
12.8207 14.6579 -1.30282
13.4125 12.8103 -0.311732
18.2895 4.53179 -2.11255
19.6246 4.99982 0.042475
20.6887 4.47427 -2.23178
18.9372 0.72612 -0.088006
18.957 4.76581 -1.03504
19.4891 4.50303 -2.17217
18.6133 2.62895 -1.10028
20.1567 4.73705 -1.09465
19.2809 2.86297 -0.0227655
19.813 2.6002 -1.1599
17.45 15.09 4.24353
19.2435 15.09 2.45002
18.3468 15.09 3.34678
16.6013 16.5724 2.30652
16.1675 14.6579 2.04394
17.498 16.5724 1.40977
17.0642 14.6579 1.14719
-21.7635 -4.08469 2.88363
-23.0456 -2.13552 4.52101
-24.6307 -4.3038 2.54506
-22.4046 -3.1101 3.70232
-23.1971 -4.19424 2.71435
-22.6296 -1.79903 1.59007
-23.8382 -3.21966 3.53304
[...]
POINT_DATA 3320
 
FIELD FieldData 2
velocity 3 3320 double
3.77624e-031 -6.0547e-031 -4.16637e-031
4.83636e-031 -7.29151e-031 -9.91577e-032
2.60484e-030 1.61628e-031 8.42253e-032
2.55055 0.0173927 0.00671913
-8.61104e-028 8.00273e-028 3.0907e-028
4.22227e-017 -8.49374e-018 -4.00488e-018
1.43039 0.0225238 0.0114665
-1.55976e-016 -2.74371e-018 -1.21017e-018
1.50744 0.019486 0.0091374
1.44265 0.0186712 0.00721647
3.61593e-030 -2.13235e-031 1.91206e-031
3.41912e-030 1.7477e-031 -6.06062e-033
3.94535 0.0125959 0.00417198
3.23834e-030 -1.67158e-031 1.04508e-031
6.85554e-016 2.14724e-019 3.51857e-019
2.99528 -9.28814e-005 0.000931089
6.68754e-016 -2.56575e-018 -1.20185e-018
2.96689 0.00462026 0.00142135
-1.38341e-016 3.70775e-019 -3.32184e-020
2.98704 -0.00899266 -0.00605104
9.05774e-031 -1.52502e-030 -4.02285e-031
-5.67206e-031 2.63454e-031 -4.65777e-032
2.93881 -0.805449 0.0097418
2.01204e-030 -2.01436e-031 -6.96062e-031
6.44085e-017 -1.48086e-016 2.32185e-017
2.58394 -1.52949 -0.223593
1.19047e-016 -6.34605e-017 -9.94661e-018
2.13507 -1.18984 -0.0985854
-1.62268e-029 -8.16262e-028 1.87074e-027
2.42282 -0.758886 -0.0670885
3.3189e-030 -9.75953e-032 1.20366e-031
3.36576e-030 -2.85664e-032 -7.17446e-032
2.82682e-030 5.95148e-033 -1.59039e-031
6.4201e-016 8.40363e-019 4.6254e-021
3.40179e-016 2.77385e-019 -5.57699e-019
2.92739 0.0106675 0.00662512
6.56031e-016 -4.30176e-019 -2.95411e-018
2.92164 0.00110162 -0.00450902
2.94253 0.00264457 -0.0109284
-1.6296e-031 -2.81529e-030 3.47315e-032
1.97705e-032 -2.51737e-030 8.51561e-033
-0.291184 -2.52761 -0.00566668
-0.0341968 -2.4616 -0.000272597
3.25986e-017 9.75264e-016 5.40562e-019
-0.115705 -1.98246 -0.00377465
-0.0406402 -2.08392 0.00156337
-0.119663 -1.96721 -0.000547391
-0.0427469 -2.13779 -0.0049887
-0.125977 -2.51555 -0.00145204
3.14788e-030 -6.67391e-032 -2.22902e-032
3.06885e-030 2.49137e-031 2.33799e-031
3.12515e-030 3.21026e-031 1.35935e-031
-2.69545e-029 -1.13908e-027 -9.83602e-028
2.94651 0.0162222 0.00629197
-3.53975e-016 -3.00673e-018 -2.27454e-018
2.97156 0.0361623 0.00540466
1.74423e-016 1.53712e-018 6.00339e-019
2.95839 0.0234768 0.0210614
1.83095e-030 -1.19123e-031 -2.26168e-031
1.80377e-030 3.938e-032 1.28097e-032
3.32184e-030 1.26099e-031 8.33528e-032
3.94037 0.00213828 0.00121153
-4.59575e-016 -7.12142e-019 -2.97071e-019
4.36085e-016 5.29077e-019 -2.62845e-019
2.93927 -0.00101897 -0.000844383
-6.05459e-017 -2.14828e-019 -3.79738e-020
2.94476 0.00815287 0.00398007
2.95066 0.00684371 -0.000912434
1.87268e-030 1.00564e-031 1.33018e-031
3.5712e-030 -4.56384e-032 -1.92199e-032
-5.06957e-016 -2.37833e-019 -4.01634e-019
5.02747e-017 -4.22224e-020 7.73732e-020
2.98293 0.00197172 0.00200424
-2.43817e-016 -2.73463e-017 -7.05947e-019
2.98017 0.00097065 0.00176489
2.98386 -0.00425905 0.00475232
2.92622e-031 -6.04432e-031 2.33403e-031
2.75124e-030 -1.42291e-031 4.4712e-032
2.61801 0.017522 -0.00699184
-7.45016e-016 -1.52153e-017 6.10598e-018
6.0943e-018 -2.9802e-018 1.93046e-017
1.5838 0.0182499 -0.00619338
8.81295e-016 1.59178e-017 -8.37635e-018
1.47459 0.0262383 -0.0116401
1.47267 0.0121126 -0.00742685
2.8706e-030 -3.87299e-032 4.52302e-032
-1.68693e-016 -3.20093e-018 1.38995e-018
-5.78696e-016 -6.19122e-019 1.12055e-019
1.47494 0.0136515 -0.00537304
3.92234e-030 -1.2059e-031 -7.7703e-031
1.39092e-016 2.18132e-019 -7.99702e-019
-7.68487e-016 7.29324e-019 4.6318e-018
2.92504 0.0112717 -0.0156784
7.56599e-031 -4.48304e-031 2.50721e-032
-1.18919e-032 3.228e-031 -8.24019e-032
0.862312 0.825373 -0.0115551
-0.725427 1.14087 0.0316561
-8.10949e-018 -6.80953e-018 -6.56677e-019
0.578422 0.219435 -0.00862982
0.0969394 0.243505 0.0107203
0.227392 0.323394 -0.0474883
-0.2862 0.355872 -0.0217828
0.172632 1.08428 -0.00903234
-8.68336e-031 2.2464e-031 3.70452e-031
-8.66633e-031 4.34083e-031 3.44845e-031
-2.37844 1.88283 0.118497
-2.29504e-030 5.41311e-031 9.9707e-032
-1.62576e-017 7.08064e-018 1.18457e-018
-1.47539 0.834657 0.0766491
-3.85438e-016 1.05929e-016 1.5522e-017
-1.09823 0.709699 0.0834701
-2.28609e-016 5.97811e-017 1.23543e-017
-1.68937 0.649687 0.0621564
8.46068e-031 4.5291e-032 -1.32056e-031
1.66258e-030 -2.08822e-031 5.57681e-032
1.35391 -0.0297508 0.0023786
6.35523e-031 3.16477e-031 -2.9053e-031
1.47763e-016 -6.39697e-018 -1.64018e-018
0.939725 -0.0056979 -0.0028041
4.42954e-017 5.91102e-020 -8.5686e-019
0.980318 -0.0629931 -0.00980492
8.61314e-017 -3.91439e-018 -2.11306e-018
0.922333 -0.00758607 -0.0190757
9.85517e-031 1.45052e-031 -5.63871e-032
3.2249e-031 -2.6602e-031 1.49115e-032
1.40897e-030 -1.25438e-031 -3.06103e-031
-2.65866e-016 4.21434e-018 -2.27253e-018
2.32914e-016 9.29681e-018 5.54442e-019
0.999335 0.0343428 0.00408262
-2.56368e-018 7.9914e-018 -7.04818e-018
0.993772 -0.071714 0.00835667
0.922151 0.00915922 0.000588184
-1.1894e-030 -4.01963e-030 -1.79376e-031
-0.603646 -2.027 -0.00248456
-0.676611 -2.01734 0.00609634
-0.433858 -1.84353 -0.0182804
-0.530843 -1.41695 0.00176611
-0.677338 -1.93035 0.000884653
-0.335544 -1.0206 -0.00953939
-0.735358 -2.47823 0.0150431
-0.560757 -2.12298 -0.00686353
-0.650939 -2.31075 -0.00115553
1.3643e-030 -1.73034e-031 8.074e-032
1.7148 -0.505857 0.00680788
-2.63328e-016 6.84843e-017 3.37333e-018
1.17862 -0.350603 -0.00462012
1.27754 -0.318119 -0.0124566
0.979819 -0.120592 -0.00543167
1.46672 -0.238329 0.00570815
-2.11698e-030 2.787e-030 -1.73215e-031
-1.61407e-016 7.99256e-018 -2.47974e-018
-5.94873 0.400569 0.00257125
-4.80795 2.11706 0.143702
-8.40217e-017 1.47335e-017 -2.99915e-018
-5.03791 1.13564 -0.192808
-3.85013 2.47188 0.0664618
-4.76813 0.262608 -0.0497631
-4.22258 1.22415 0.092593
-5.78664 1.07279 0.109514
-1.3848e-030 -2.22981e-031 1.13056e-030
-3.0404e-018 -5.54465e-018 -8.43535e-020
-0.6034 -1.77927 0.0109116
9.56298e-017 1.63271e-016 -4.21921e-018
-0.364905 -0.841089 0.0393622
-1.35474e-016 -2.7085e-016 6.56109e-018
-0.563853 -1.11914 -0.00624045
1.84491e-016 3.90465e-016 1.90538e-018
-0.544383 -1.26328 0.00583218
2.17361e-030 5.74709e-031 -2.82557e-032
1.16771e-030 7.10474e-031 2.45956e-031
0.681797 -0.703367 0.0179813
1.40823e-016 2.05502e-017 2.95583e-018
0.538661 0.0270535 0.0226902
1.15935 0.121494 0.00328188
0.457968 -0.0889527 0.0435512
1.02966 0.0842837 0.029645
1.18679 -0.287418 0.0170042
-2.92907e-030 7.84849e-032 2.99514e-031
-2.67725 1.16133 -0.103471
-1.23828 0.410191 0.0635358
-1.96643 0.570032 0.0868495
-2.26492 0.470651 0.0126283
-1.64873 1.6915 0.104857
-1.90393 1.34421 -0.0576242
-3.19455 1.94984 -0.00278567
2.48711e-030 3.19594e-030 8.64992e-031
3.07791e-030 2.47626e-030 2.92642e-030
-1.10583e-031 1.36855e-030 -4.78889e-031
-0.368186 4.95813 -0.0613206
-5.73169e-018 1.88552e-016 2.11809e-017
6.83513e-017 1.43539e-015 1.1555e-016
-0.0393964 3.47075 0.143474
-4.55172e-018 8.93901e-016 9.56176e-017
-0.289157 3.76055 0.359705
0.0915121 3.16128 0.0848621
-6.75494e-017 3.14687e-018 -3.06502e-018
-2.90429e-030 -4.68757e-031 -2.40106e-031
-4.42919 0.697631 0.00922736
-4.75437e-016 8.49554e-018 -1.46373e-017
-3.15683 0.349584 -0.0435773
-1.96927 0.350891 -0.0848525
-2.90854 0.209291 -0.0243944
-2.17453 0.279897 -0.0532459
-3.85392 1.03588 -0.0289823
-4.31212e-031 5.88311e-031 -4.47056e-031
-3.26497e-031 4.05983e-031 -1.46159e-031
-6.53043e-031 3.1085e-030 -5.43016e-031
-0.118986 2.19386 -0.10235
5.58169e-017 -6.49813e-016 4.3196e-017
-7.28956e-017 9.02472e-016 -6.81573e-017
-0.0794019 1.08948 -0.0743305
-2.98234e-017 2.00091e-016 2.0044e-019
-0.0799449 1.16993 -0.0541205
-0.0762176 1.19753 -0.0667231
-0.778624 -2.34361 0.000372384
-0.767705 -1.90923 0.00633722
-1.06462e-031 6.15076e-031 6.80057e-031
-0.0221782 4.81363 0.0573948
-0.462864 3.46633 -0.10357
1.24894 1.30961 -0.110184
0.272422 3.20475 0.214498
0.130476 3.14362 0.108908
0.666303 1.17987 -0.0692491
-0.0563117 4.54579 -0.0552992
0.707624 3.06772 0.0561636
0.718237 2.78201 0.0140077
1.39789e-030 6.94616e-031 2.42683e-030
-5.95379e-031 4.92869e-030 2.58993e-031
2.63334e-032 3.38296e-030 -4.14733e-031
-1.04195 3.72937 0.39647
-4.41491e-018 1.0163e-016 2.43635e-017
-1.03196e-018 9.07789e-017 2.19802e-017
-0.449838 2.34586 0.520911
7.48196e-028 -2.49021e-028 1.53363e-027
-0.181312 2.05503 0.28532
-0.100563 2.10736 0.304084
-2.20498e-030 -1.56312e-030 1.38546e-030
-0.57806 -1.74541 0.0636605
-0.245861 -2.31285 -0.122686
-0.457063 -1.23915 0.0519223
-0.480954 -1.36356 0.0270085
-0.246311 -1.93943 0.0686479
-0.736012 -2.15835 0.020628
-0.54534 -2.35609 -0.0532391
-0.662861 -2.02207 -0.0460045
-1.81053e-031 9.57078e-031 1.35645e-031
-1.12315e-031 4.30505e-030 3.70097e-031
-2.88864e-017 5.88346e-016 5.83199e-017
-0.231382 2.27814 0.220206
-0.10548 3.34367 0.24206
-0.150141 2.18333 0.221683
-0.121404 3.45838 0.222316
-0.463047 4.7857 0.215103
7.15161e-032 -1.03777e-030 -7.25606e-031
-1.74242e-030 -4.9013e-030 8.61546e-031
1.17241e-016 3.77784e-016 5.78458e-018
-0.259487 -1.0844 -0.0152895
1.99547e-027 -6.84236e-028 -2.47436e-027
-0.341815 -1.07592 -0.0128154
1.68528e-016 4.29989e-016 4.83684e-018
-7.92348e-031 8.55992e-031 2.97664e-031
1.05158 -2.19675 -0.017597
0.878617 -1.40226 -0.0143205
0.820534 -1.05808 -0.0320148
1.58344 -0.86666 0.0386152
0.810793 -1.55942 0.0220135
1.77004 -1.39643 0.0175617
1.35647 -0.701086 0.0118722
-1.82634e-030 2.05351e-030 -1.33633e-030
-4.56914e-031 2.4315e-030 -8.91314e-031
-3.99557e-031 3.01404e-030 3.08601e-031
2.10735e-017 4.59992e-016 -5.7175e-017
-1.85717e-017 1.88587e-016 -1.45668e-017
0.0940561 3.44889 -0.267689
2.5438e-018 -6.41659e-016 7.01091e-017
0.106683 3.58172 -0.27833
-0.136607 3.57608 -0.212076
1.00386e-030 1.63506e-031 2.23628e-031
1.30142e-016 -8.56972e-018 1.49526e-017
0.652264 0.319035 0.0385941
0.109738 0.29249 0.065202
2.55414e-030 -8.85056e-031 6.8733e-031
2.19119e-030 -5.93161e-031 1.91093e-030
1.48679 0.181922 0.020638
1.44283e-030 6.25449e-031 -5.13791e-031
2.70996e-016 3.34008e-017 2.74921e-017
1.19124 0.104277 0.0452171
-1.52517e-028 2.07062e-027 -9.16522e-028
1.10793 0.178437 0.122933
-1.0726e-016 -8.28215e-018 -9.22204e-018
0.954008 0.0143367 0.000752405
-4.63007e-030 -1.64494e-031 -2.38882e-032
-4.76689e-030 1.31523e-031 -3.39198e-032
-5.95018 -0.0259185 0.00818894
-2.53722e-030 1.78783e-031 8.65377e-033
-1.09773e-015 9.00923e-019 1.59755e-018
-4.17587 -0.00711963 0.00288585
-7.77829e-016 2.28702e-019 -6.24802e-019
-4.25883 0.00311407 0.00632141
3.17536e-016 -6.82744e-019 5.28848e-020
-4.21667 -0.00424674 -0.00314302
-8.59462e-031 4.13606e-031 1.16713e-030
-4.30255e-030 9.66676e-032 8.01673e-032
-3.9944 0.00113619 -0.0305276
-4.05153e-030 -3.27275e-032 -1.60296e-031
-2.36472e-016 -2.75808e-018 -1.99582e-017
-2.38027 0.00757497 -0.0303184
6.55575e-016 -2.70731e-018 1.14976e-017
-2.61272 -0.00114158 -0.0166027
1.17231e-015 -9.09805e-019 3.34823e-017
-2.26989 0.00394897 -0.0314736
1.62028e-030 2.29213e-030 -4.72586e-031
6.17741e-031 -5.49819e-032 6.9876e-031
-1.33546e-016 -5.17525e-016 3.58018e-017
0.412636 2.60854 -0.141177
0.987613 1.31677 0.135735
0.194443 2.37406 -0.0840112
0.59409 1.1926 0.0935568
0.327385 1.91166 -0.0168197
-2.9388e-031 -1.12732e-031 5.0774e-031
4.60844e-031 2.37276e-031 -1.53312e-031
-4.28171e-032 -1.21065e-034 -1.17932e-030
-1.67559e-017 7.14581e-018 1.3359e-019
5.3743e-018 -4.39434e-018 -3.69359e-019
0.804561 -0.641845 0.00843146
3.38299e-017 -1.46467e-017 -3.89983e-018
0.823287 -0.316195 -0.0341129
0.403902 -0.419209 -0.0590659
-8.64337e-017 -6.71107e-016 8.08082e-017
7.63885e-017 4.51225e-016 -3.36857e-017
0.130463 2.64537 -0.213106
1.73868e-030 2.2926e-032 -3.90156e-031
1.6768e-030 -2.89472e-032 4.22948e-031
1.5258 0.0796109 -0.00463038
2.88102e-016 8.01052e-018 3.43308e-018
1.1821 0.0531436 -0.0046471
1.03645 0.0407597 0.0118931
1.14553 0.0301682 0.0209775
1.02661 0.0487212 0.0143834
1.52699 0.0867904 0.00235665
-1.30894e-030 1.00221e-031 1.82196e-031
-1.98888e-031 -2.2919e-031 1.54986e-031
-1.80997e-030 -5.20735e-031 1.42192e-032
-6.62544e-017 1.54502e-017 1.18408e-017
-0.811589 0.41429 0.0923331
1.2935e-016 -1.66072e-017 -6.8999e-018
-0.270557 0.323915 0.0520703
-1.94441e-017 1.9874e-018 7.59657e-019
-0.890991 0.328172 -0.0050327
-4.5806e-030 -1.70035e-033 4.95652e-032
-2.63462e-030 -5.34049e-032 1.77395e-032
-4.41112e-016 -2.63025e-019 1.0151e-018
9.39107e-016 1.78425e-018 -3.51797e-018
6.48635e-016 1.75718e-018 -4.95122e-018
-4.15853 -0.0125554 0.0258721
-4.16954 -0.0149053 0.0190831
-1.61712e-030 -1.58548e-030 7.52507e-031
1.55436e-027 -1.17359e-027 -2.76607e-027
0.0717466 -0.487729 0.060873
-0.373654 -1.22996 0.0230853
0.0230024 -0.803706 0.0378207
-0.0574779 -1.26855 0.0337616
-8.7549e-032 -2.17866e-030 -3.05785e-032
3.56892e-031 -1.73074e-030 2.47397e-031
1.98373e-027 -1.28035e-028 5.30781e-028
-0.227395 -1.16823 0.00794913
-0.209301 -2.06587 -0.00799398
-0.209626 -1.18115 -0.000752744
-0.19438 -2.02831 0.00970495
-0.472931 -2.44312 -0.0117921
1.94353e-030 4.9877e-030 -2.70447e-030
1.73736e-030 -7.05232e-031 -2.63267e-032
3.32148e-030 -8.36154e-031 3.76981e-031
3.96655 -0.277735 -0.000415114
-8.16955e-016 3.30267e-017 5.52628e-017
-2.07169e-016 4.52656e-018 1.33704e-017
3.07572 -0.135066 -0.267575
7.51736e-016 -2.33273e-017 5.15894e-018
2.82766 -0.162277 0.00219233
2.70957 -0.0868738 0.0219899
-8.33635e-032 -2.23573e-030 1.50841e-032
-7.57237e-032 -2.11588e-030 8.81714e-032
-7.13614e-017 -1.05836e-015 -2.40806e-018
-0.0624719 -1.6615 0.00381965
-0.153711 -1.86172 -0.0132098
-0.0468896 -1.61675 -0.00284396
-0.153631 -1.80099 0.00491831
-6.9362e-030 -1.27057e-030 8.61521e-031
-6.83573e-017 -7.84364e-019 8.63534e-019
-5.9511e-030 2.01854e-031 6.54601e-032
-2.0909e-016 -2.20707e-018 2.22932e-018
-1.73871e-016 -1.25556e-018 1.64621e-018
-4.62884 -0.0368814 0.0296284
-2.2578e-016 -1.81433e-018 2.56294e-018
-4.4871 -0.040898 0.0399396
-4.67498 -0.0217788 0.0343866
7.61142e-030 -8.35097e-030 4.36884e-031
4.19191e-030 -4.91709e-030 -4.65688e-031
-9.33997e-028 -2.58083e-028 4.47209e-028
1.24662 -2.1796 0.0591337
3.18663 -1.65294 0.0893664
1.25889 -2.18601 0.127494
3.0071 -1.72127 -0.176913
2.34285 -1.60267 0.0381587
2.26873e-030 1.56467e-031 -1.01697e-030
2.20477e-030 -3.4846e-031 2.16941e-032
1.56576e-030 -1.96782e-031 -5.24277e-032
-7.67759e-017 -1.75748e-017 2.3273e-017
4.92526e-016 -2.92225e-017 -1.7042e-017
1.79683 -0.347179 -0.0724863
-1.44853e-016 -5.74265e-018 6.02217e-018
1.68421 -0.22201 -0.0392287
1.9938 -0.270022 -0.0477212
-2.86974e-030 1.21015e-031 9.82604e-032
-2.80854e-030 -1.93639e-033 2.48607e-032
-5.09507e-030 -1.26722e-031 -2.06138e-031
-5.98094 -0.000524895 -0.00125728
-9.10316e-016 5.17806e-019 -1.96435e-018
-9.25996e-017 3.49868e-019 -1.57341e-019
-4.51907 0.00522921 -0.00516402
-1.17287e-015 -9.48624e-019 -2.64315e-018
-4.49662 -0.00206439 -0.00846633
-4.51908 -0.0030713 -0.00574059
1.895e-030 2.01327e-030 -8.86689e-033
-1.08832e-030 2.72985e-030 4.89038e-031
-3.19983e-030 2.98928e-030 -5.48759e-031
-7.24751e-017 -9.35251e-016 -1.43287e-017
0.371846 3.39235 -0.00221855
-5.3295e-017 -7.78177e-016 8.59459e-018
-0.0669475 3.09211 0.0986655
-2.37895e-027 -2.95211e-028 4.59175e-029
-0.0954618 3.21195 -0.0154433
-1.91537e-030 1.41498e-030 -2.26043e-031
-2.66904e-017 -1.09849e-016 1.71423e-017
-0.296405 -0.612089 0.0221697
-4.25916e-016 -4.50774e-016 7.98627e-018
1.36852e-030 -1.72943e-030 -2.25139e-030
-2.20386e-017 7.77257e-019 -2.56245e-019
5.14908e-030 -1.46913e-032 6.01684e-031
-1.51481e-016 5.19474e-018 7.7494e-019
-2.0099e-016 6.20447e-018 2.73925e-018
2.74649 -0.127692 -0.0420584
-8.78251e-016 2.8144e-017 -3.3299e-018
2.96127 -0.138899 0.0227973
2.91304 -0.124659 -0.00825197
0.227974 -0.234984 0.0060179
2.60442e-031 -2.81032e-031 5.17652e-031
-3.62163e-032 -1.55078e-030 -8.92612e-033
-0.00944492 -1.59358 -0.00679678
-0.00409802 -1.71273 -0.0100637
6.78154e-018 5.60144e-016 7.74701e-018
-0.010559 -0.982479 -0.0109894
-0.00818254 -0.976703 -0.0133951
-0.00790874 -0.905422 -0.00688728
-0.00779228 -1.02991 -0.00754513
-0.00749027 -1.77696 -0.00793256
-5.52854e-030 -1.25785e-030 -4.02131e-031
-5.87325e-030 7.47875e-031 -3.04295e-032
-1.96696e-016 -4.90241e-019 -2.98824e-019
-1.07908e-015 -6.17848e-018 -4.4259e-019
1.7267e-029 2.02705e-027 8.74492e-028
-4.76158 -0.0338112 -0.000401979
8.96464e-016 1.98032e-018 -2.07997e-019
-4.82179 -0.00747945 0.00178603
-4.86881 -0.0203146 0.00386657
2.45211e-030 -4.48671e-031 -4.97707e-031
1.65122e-030 -1.3228e-031 5.98963e-031
-5.34948e-016 1.6387e-016 1.40323e-017
6.46284e-016 -1.61488e-016 -1.85812e-018
1.98055 -0.635909 -0.005002
-6.29949e-017 1.54466e-017 -1.25347e-018
2.15934 -0.421627 0.06301
-4.77168e-031 -3.49799e-030 1.34132e-030
-1.0711e-017 -3.26164e-017 -2.89137e-019
-0.46706 -1.04655 -0.0424082
-0.479982 -1.30444 0.0167901
-0.485747 -1.33336 -0.0615682
-0.577135 -1.55881 -0.0112686
2.09769e-017 5.45784e-017 -7.98513e-019
-9.33561e-032 4.80478e-031 -3.25712e-031
-1.93616e-031 2.25049e-031 -7.66735e-032
1.70752e-016 -6.24287e-017 -6.94297e-018
-1.48371 1.39175 0.11517
-7.85119e-017 5.70023e-017 5.88083e-018
-1.06405 1.07979 0.114251
-1.19511e-029 -1.57043e-028 1.30451e-027
5.2012e-031 -3.10059e-031 5.85636e-032
4.83766e-031 -2.30026e-031 -1.86751e-031
-0.0111852 -1.67851 0.00393963
6.15853e-032 -1.68087e-030 -1.56656e-032
9.49798e-028 -9.22848e-028 -1.09517e-028
-0.0125639 -1.00536 0.00208477
-1.65027e-018 -1.15222e-016 1.41953e-019
-0.0189337 -0.946013 0.0074084
-2.58778e-018 -1.22463e-016 7.74148e-019
-0.00906567 -0.953611 0.00126453
3.7402e-031 -3.01819e-031 -4.22248e-031
8.20005e-032 -1.80446e-030 -7.1875e-032
-0.00397561 -1.67221 0.0148684
1.28516e-018 1.97357e-016 -3.25028e-018
-0.00726605 -1.00637 0.016554
-0.0125106 -1.02052 0.00952864
-0.00297895 -1.09777 0.0117634
-0.00932886 -0.955368 0.00456324
-0.00577766 -1.86965 0.00756695
1.45271e-031 -2.79669e-030 -1.44634e-031
1.59903e-031 -2.44912e-030 -3.07671e-031
-0.002544 -2.52416 -0.000991642
2.95166e-020 1.50099e-016 3.61644e-019
-1.97579e-019 1.00227e-016 1.71303e-019
0.00101747 -1.85138 -0.000396799
1.59171e-019 3.40308e-017 2.61532e-019
-0.00276973 -1.85295 -0.00598328
0.00254836 -1.86481 -0.00429346
8.64679e-031 -1.00772e-032 2.97596e-032
2.02197e-030 1.33526e-031 -3.2471e-031
1.08995e-030 -2.15719e-032 1.35667e-032
-4.10296e-017 -2.24371e-018 1.21822e-019
1.14295 0.0770094 -0.00691031
-1.16847e-029 -2.84948e-028 2.68451e-027
1.15564 0.0467757 -0.0178989
-1.30283e-017 -4.16107e-019 2.71653e-027
1.13375 0.0417838 -0.0159999
3.63754e-017 7.92289e-019 2.75008e-019
9.0741e-031 -3.74811e-031 1.23505e-031
1.19506e-030 -8.97456e-032 7.57828e-033
1.45527e-016 3.36558e-019 7.51645e-019
1.70066e-017 1.86005e-019 1.18609e-019
1.12355 0.0360663 0.00445286
1.92438e-016 -1.73163e-018 8.69557e-019
1.1291 0.00718449 0.000926442
1.08561 0.0195571 0.00331852
4.83198e-020 2.86738e-017 -2.25211e-020
-4.88747e-021 -8.72455e-018 -3.32236e-020
-0.00669099 -1.82407 -0.00743189
-0.00277539 -1.90059 0.000749226
-0.0118259 -1.93884 -0.0111688
-0.0154304 -2.51707 -0.00345828
1.77191e-030 4.69361e-031 -6.57069e-032
1.56003e-030 -1.67414e-032 -9.09933e-032
-5.38012e-018 -2.29299e-017 3.34291e-019
0.874518 0.196995 0.00584995
-2.00834e-016 -7.35881e-019 -5.89199e-019
0.779811 0.165177 -0.0239566
2.018e-016 -6.11098e-018 -5.83556e-018
2.79872e-030 4.08025e-032 -8.16925e-032
1.9984e-030 -2.34591e-033 7.70687e-032
1.96502e-030 -1.03894e-031 1.55053e-031
5.17515e-016 6.24583e-019 -1.07833e-018
-1.52534e-016 8.7776e-021 3.00592e-019
2.98029 0.00118695 -0.00742282
7.66185e-016 6.30585e-019 -1.32603e-019
2.97615 0.00469315 -0.00027743
2.97552 -0.000347167 0.000174299
4.85986e-030 1.69257e-030 -1.1526e-030
4.98048e-030 -6.17417e-031 3.12525e-032
-4.39783e-016 -1.10743e-016 2.39381e-018
3.15652 -0.0121055 -0.0327578
2.36228 -0.109929 -0.0168776
3.10179 -0.0620307 0.0121888
2.28331 -0.12134 -0.00212023
3.6156 -0.728847 0.0158256
1.26239e-030 9.91854e-032 3.20217e-031
-2.58363e-016 -1.83173e-017 -1.9475e-018
1.09758 0.0823646 0.000549409
0.955823 0.0414032 0.00674153
1.12198 0.0416065 0.0116933
1.43289 0.0715154 -0.00219355
-3.34646e-032 -1.63721e-030 1.23974e-031
8.02577e-018 -9.8421e-017 3.1688e-019
-0.00233196 -0.957451 0.0144235
0.00339062 -1.87904 0.00784816