# vtk DataFile Version 2.0 
output.vtk, Created by Freefem++, via gregorio
ASCII
DATASET UNSTRUCTURED_GRID
POINTS 3312 double
-13.2869 -4.47555 -4.48373
-13.8692 -6.3874 -4.31869
-12.2876 -6.57181 -0.209849
-9.75008 -6.53741 -3.36667
-13.578 -5.43147 -4.40121
-12.7872 -5.52368 -2.34679
-11.5185 -5.50648 -3.9252
-13.0784 -6.47961 -2.26427
-11.8096 -6.46241 -3.84268
-11.0188 -6.55461 -1.78826
-11.5839 2.39891 -4.38694
-12.6041 4.70246 -4.71521
-10.0802 4.11168 -4.89906
-10.4338 3.70992 -0.766179
-12.094 3.55068 -4.55108
-10.832 3.2553 -4.643
-11.0089 3.05441 -2.57656
-11.3422 4.40707 -4.80714
-11.519 4.20619 -2.7407
-10.257 3.9108 -2.83262
-19.8994 23.1378 -0.077092
-19.3673 22.923 -2.22179
-19.7591 20.8392 -1.16644
-15.2375 21.7769 0.016664
-19.6334 23.0304 -1.14944
-19.8293 21.9885 -0.621766
-17.5685 22.4573 -0.030214
-19.5632 21.8811 -1.69412
-17.3024 22.3499 -1.10256
-17.4983 21.3081 -0.574888
-11.7617 -10 3.30664
-10.1718 -10 1.06412
-10.3633 -4.5594 2.99081
-10.9667 -10 2.18538
-11.0625 -7.2797 3.14872
-12.0246 -8.28591 1.5484
-10.2675 -7.2797 2.02746
-11.2297 -8.28591 0.427136
-11.3254 -5.56561 1.39048
31.7873 1.12949 -4.87076
31.8331 3.23722 -3.81057
34 0.659839 -2.69953
30.0526 -0.01088 -0.009521
31.8102 2.18335 -4.34066
32.8937 0.894663 -3.78514
30.92 0.559303 -2.44014
32.9165 1.94853 -3.25505
30.9428 1.61317 -1.91004
32.0263 0.324479 -1.35453
-8.10817 1.08422 0.596458
-11.9512 -2.73147 -1.76698
-11.5155 -1.26201 2.76782
-10.0297 -0.823624 -0.58526
-9.81183 -0.0888915 1.68214
-9.23572 -1.73759 1.79363
-11.7333 -1.99674 0.500421
-11.1572 -3.64544 0.611915
-10.9394 -2.91071 2.87931
-1.21496 3.32117 3.73763
-3.1192 4.79409 2.45268
-3.89981 3.24153 4.19858
-4.38436 0.116924 0.018448
-2.16708 4.05763 3.09515
-2.55738 3.28135 3.96811
-2.79966 1.71905 1.87804
-3.5095 4.01781 3.32563
-3.75178 2.45551 1.23556
-4.14208 1.67923 2.10852
-5.33534 -7.97504 3.76875
-6.82951 -10 3.18807
-5.94762 -10 0.392575
-8.08746 -10 1.51711
-6.08242 -8.98752 3.47841
-5.64148 -8.98752 2.08066
-6.7114 -8.98752 2.64293
-6.38856 -10 1.79032
-7.45848 -10 2.35259
-7.01754 -10 0.954841
-2.6886 1.5726 4.74626
-3.59302 -0.548964 4.96977
-0.499098 -0.404836 0.421255
-3.14081 0.511816 4.85801
-1.59385 0.58388 2.58376
-3.53648 0.84476 2.38235
-2.04606 -0.4769 2.69551
-3.98869 -0.21602 2.49411
-2.44173 -0.143956 0.219852
-18.2113 4.20726 -2.70166
-16.2405 2.71229 -4.20042
-19.0514 2.47465 -4.34467
-17.567 -0.007549 0.474812
-17.2259 3.45977 -3.45104
-18.6313 3.34095 -3.52316
-17.8892 2.09985 -1.11342
-17.646 2.59347 -4.27254
-16.9038 1.35237 -1.8628
-18.3092 1.23355 -1.93493
-14.9238 5.44547 -4.04261
-13.4552 5.88779 -2.38039
-13.4549 7.37683 -4.8735
-13.764 5.07396 -4.37891
-14.1895 5.66663 -3.2115
-14.1893 6.41115 -4.45805
-13.0297 5.29513 -3.5478
-13.0295 6.03964 -4.79436
-13.455 6.63231 -3.62695
-10.2522 22.6838 1.21168
-10.2491 22.5642 -1.19957
-10.1 19.9628 0.005626
-10.2506 22.624 0.006054
-12.7448 22.2304 0.614171
-10.1761 21.3233 0.608652
-12.7433 22.1705 -0.591453
-10.1746 21.2635 -0.596973
-12.6688 20.8699 0.011145
25.3937 3.45725 3.61212
25.4011 1.40984 4.79712
25.4181 0.016272 0.009379
23.1723 2.55622 4.29718
25.3974 2.43355 4.20462
25.4059 1.73676 1.81075
24.283 3.00673 3.95465
25.4096 0.713058 2.40325
24.2867 1.98303 4.54715
24.2952 1.28625 2.15328
7.21254 -3.75646 -3.29985
9.32964 -4.89101 -1.03826
7.29018 0.097949 0.003741
10.3309 -3.6587 -3.40792
8.27109 -4.32374 -2.16906
7.25136 -1.82926 -1.64805
8.77174 -3.70758 -3.35388
8.30991 -2.39653 -0.517259
9.83028 -4.27486 -2.22309
8.81056 -1.78038 -1.70209
-25.1874 4.92254 -0.8767
-23.1563 4.25673 -2.62302
-25.0835 3.57494 -3.49568
-21.9772 0.217695 0.142729
-24.1719 4.58963 -1.74986
-25.1355 4.24874 -2.18619
-23.5823 2.57012 -0.366986
-24.1199 3.91584 -3.05935
-22.5667 2.23721 -1.24015
-23.5304 1.89632 -1.67648
-18.6682 25.09 3.24878
-19.3933 22.9845 2.17008
-15.9494 25.09 2.56385
-17.6005 25.09 0.645673
-19.0307 24.0373 2.70943
-17.3088 25.09 2.90632
-18.1343 25.09 1.94722
-17.6713 24.0373 2.36696
-18.4969 24.0373 1.40787
-16.775 25.09 1.60476
-4.73767 3.18091 -4.38679
-3.084 4.74467 -2.51593
-5.96257 5.32761 -3.36616
-3.91083 3.96279 -3.45136
-4.56102 1.64892 -2.18417
-5.35012 4.25426 -3.87648
-3.73418 2.4308 -1.24874
-4.52328 5.03614 -2.94104
-5.17347 2.72227 -1.67386
-17.9078 22.6793 3.94394
-18.288 23.8847 3.59636
-16.9286 23.8847 3.2539
-18.6505 22.8319 3.05701
-11.7554 9.85703 -4.41165
-9.75291 10.25 -2.66457
-11.3814 7.35715 -2.33987
-14.2529 8.12356 -0.658778
-10.7542 10.0535 -3.53811
-11.5684 8.60709 -3.37576
-13.0042 8.99029 -2.53522
-10.5672 8.80359 -2.50222
-12.0029 9.18679 -1.66167
-12.8172 7.74036 -1.49932
-29.8602 -2.84422 -4.11222
-29.7648 -0.689338 -4.95225
-27.5736 -1.91094 -4.62043
-30.0846 -0.080837 -0.075233
-29.8125 -1.76678 -4.53224
-28.7169 -2.37758 -4.36632
-29.9724 -1.46253 -2.09373
-28.6692 -1.30014 -4.78634
-29.9247 -0.385088 -2.51374
-28.8291 -0.995887 -2.34783
4.05001 4.9318 -0.823008
5.56777 4.06455 -2.91195
3.15382 0.315201 0.376157
4.80889 4.49817 -1.86748
3.60192 2.6235 -0.223425
5.6701 2.51487 -0.409633
4.3608 2.18988 -1.2679
6.42897 2.08125 -1.4541
5.222 0.206575 0.189949
-19.6744 17.2932 1.46982
-18.3323 17.3986 3.59246
-19.0621 20.1923 2.74037
-15.0586 17.5133 -0.015506
-19.0033 17.3459 2.53114
-19.3682 18.7427 2.10509
-17.3665 17.4033 0.727156
-18.6972 18.7955 3.16641
-16.6955 17.456 1.78848
-17.0603 18.8528 1.36243
-15 15.09 4.9
-12.55 15.09 4.24353
-14.8534 13.8662 0.211807
-13.775 15.09 4.57177
-15.0293 16.3017 2.44225
-14.9267 14.4781 2.5559
-13.8043 16.3017 2.11401
-13.7017 14.4781 2.22767
-14.956 15.6898 0.0981505
-0.971873 -0.352647 4.98755
-1.83024 0.609975 4.8669
-2.28245 -0.450805 4.97866
-0.735486 -0.378741 2.7044
-31.9038 0.569924 -4.96741
-34 -1.52858 -2.50199
-34 1.01147 -2.68077
-32.9519 -0.479326 -3.7347
-32.9519 0.790695 -3.82409
-30.9942 0.244543 -2.52132
-34 -0.258555 -2.59138
-32.0423 -0.804706 -1.28861
-32.0423 0.465314 -1.378
-3.5013 -3.7757 3.27782
-2.15804 -2.37875 4.3979
-2.82967 -3.07722 3.83786
-3.94283 -1.82939 1.64813
-2.0002 -2.09027 1.84954
-3.2712 -1.13091 2.20818
-1.32857 -1.39179 2.40958
-18.2883 7.63592 -1.20698
-19.1486 9.90019 0.76775
-18.9297 10.4257 -1.94874
-16.0785 10.5844 -1.53368
-18.7185 8.76805 -0.219617
-18.609 9.03083 -1.57787
-17.1834 9.11015 -1.37033
-19.0391 10.163 -0.590497
-17.6136 10.2423 -0.382963
-17.5041 10.5051 -1.74121
25.3681 -0.205115 -4.99579
23.2608 0.991474 -4.90071
23.15 -1.40079 -4.79977
24.3144 0.39318 -4.94825
25.3931 -0.0944215 -2.49321
24.2591 -0.802953 -4.89778
24.3394 0.503873 -2.44567
23.2054 -0.204659 -4.85024
24.284 -0.69226 -2.3952
-7.09449 -2.33264 4.42253
-8.61714 -3.2347 -1.75952
-7.60133 -0.624206 2.5095
-8.72888 -3.44602 3.70667
-7.85581 -2.78367 1.33151
-8.36266 -1.07524 -0.581533
-9.49021 -3.89705 0.615642
-5.81393 -3.5837 3.4867
-7.51144 -6.58543 0.896951
-7.21553 -3.4092 0.863588
-8.0886 -4.07155 3.23875
-6.66268 -5.08457 2.19183
-8.06429 -4.91006 -0.431286
-8.93736 -5.57242 1.94388
9.60726 -4.61659 1.92018
12.2773 -3.9621 3.04989
11.8629 -0.029174 -0.241828
11.8561 -4.98062 0.439832
10.9423 -4.28934 2.48503
10.7351 -2.32288 0.839175
10.7317 -4.7986 1.18
12.0701 -1.99563 1.40403
12.0667 -4.47136 1.74486
11.8595 -2.5049 0.099002
1.54653 4.42996 -2.3185
1.66638 4.96721 0.571656
1.60645 4.69859 -0.87342
2.79827 4.68088 -1.57075
2.35018 2.37258 -0.97117
2.8582 4.94951 -0.125676
2.4101 2.64121 0.473907
27.5123 -3.48058 -3.58965
25.4194 -4.24336 -2.64459
25.3735 -2.49243 -4.33449
26.4658 -3.86197 -3.11712
26.4429 -2.9865 -3.96207
26.4652 -1.73215 -1.79014
25.3964 -3.3679 -3.48954
25.4187 -2.11355 -1.31761
25.3958 -1.23808 -2.16256
-6.45421 -2.95817 3.95462
-17.8824 22.9627 -3.96253
-15.7591 22.8497 -4.84084
-17.029 25.09 -1.80917
-16.8208 22.9062 -4.40169
-16.56 22.3698 -1.97294
-17.4557 24.0264 -2.88585
-15.4983 22.3133 -2.41209
-16.3941 23.9699 -3.325
-16.1333 23.4335 -0.896251
11.7254 -4.67988 -1.76033
10.5275 -4.78545 -1.39929
10.5929 -4.93582 -0.299214
10.5963 -2.46009 -0.640044
11.7908 -4.83025 -0.660247
11.7942 -2.35453 -1.00108
1.10771 3.90382 3.12413
3.49731 4.41042 2.35546
1.38704 4.43552 1.84789
2.58184 4.68882 1.46356
2.30251 4.15712 2.73979
2.13077 2.10951 1.75014
3.32557 2.36281 1.36581
-15.8797 4.30965 -2.53514
-13.287 0.561668 -0.143895
-16.0601 3.51097 -3.36778
-16.7233 2.15105 -1.03016
-14.5833 2.43566 -1.33952
-14.7638 1.63698 -2.17216
-15.427 0.277059 0.165459
-31.8766 -1.75096 -4.68339
-31.8902 -0.590517 -4.8254
-30.8207 -1.22015 -4.81782
-30.9806 -0.915897 -2.37931
-30.8343 -0.059707 -4.95983
-9.225 -10 3.60606
-10.4933 -10 3.45635
-9.69839 -10 2.33509
-9.79414 -7.2797 3.29843
-7.74329 -10 5.82836
-5.80566 -10 4.63358
-6.98823 -8.11317 5.20569
-6.77448 -10 5.23097
-7.36576 -9.05658 5.51702
-7.2864 -10 4.50821
-6.39695 -9.05658 4.91963
-6.31759 -10 3.91082
-6.90887 -9.05658 4.19688
-9.17715 1.62989 -4.72689
-7.56468 3.64868 -4.72877
-8.37092 2.63929 -4.72783
-8.64266 1.35706 -2.06521
-9.80549 2.6699 -2.74653
-7.83642 2.36645 -2.06616
-8.99926 3.6793 -2.74748
-9.271 2.39707 -0.0848605
-17.45 15.09 4.24351
-16.225 15.09 4.57176
-16.1517 14.4781 2.22766
-16.2543 16.3017 2.114
-17.45 15.09 -4.24351
-18.41 12.7459 -3.36841
-16.2187 12.6757 -4.69651
-17.93 13.9179 -3.80596
-16.1517 14.4781 -2.01585
-16.8344 13.8828 -4.47001
-16.6317 13.306 -1.5783
-17.3144 12.7108 -4.03246
-15.536 13.2709 -2.24235
-6.43527 -6.42692 4.57949
-7.83013 -8.21346 4.09277
-6.63239 -8.21346 3.88378
-7.26136 -8.21346 3.0483
-8.02725 -10 3.39707
-8.65623 -10 2.56158
-15.5899 -10 2.79553
-15.6505 -7.12858 1.66627
-14.0175 -10 1.75728
-14.6827 -7.84811 3.72084
-15.6202 -8.56429 2.2309
-14.8037 -10 2.27641
-15.1363 -8.92405 3.25819
-14.834 -8.56429 1.71178
-15.1666 -7.48834 2.69356
-14.3501 -8.92405 2.73906
-10.7565 15.09 2.45002
-11.6532 15.09 3.34678
-12.9075 16.3017 1.21726
-12.8049 14.4781 1.33091
-27.6788 4.99266 -0.270924
-27.3977 4.3587 -2.44985
-25.8481 -0.437629 -0.19515
-27.5383 4.67568 -1.36039
-26.7635 2.27751 -0.233037
-26.4331 4.9576 -0.573812
[...]
POINT_DATA 3312
 
FIELD FieldData 2
velocity 3 3312 double
3.9741e-031 1.83773e-030 4.74332e-031
1.70763e-031 1.11306e-030 -1.60522e-031
-0.448458 4.80102 0.0630047
-0.120994 3.40696 0.25308
-3.66209e-017 9.35391e-016 1.29767e-016
-0.415958 3.40908 0.300897
-0.120861 2.30834 0.301431
-0.122485 3.0692 0.2141
-0.0563221 2.37559 0.23859
-0.205787 4.69377 0.155549
1.80948e-031 3.18444e-032 -2.79228e-031
4.95783e-031 -5.78565e-031 9.63656e-031
1.25731e-031 -2.55458e-031 -5.52854e-031
-0.45347 -0.42023 0.021419
-1.34754e-016 -1.08786e-016 2.72739e-017
-1.63601e-016 -8.12662e-017 1.97865e-017
-0.662136 -0.196253 0.0631453
-2.0014e-017 -6.67917e-017 9.85931e-018
-0.307204 -0.613362 0.0978661
-0.128443 -0.293943 0.0157576
3.61979e-032 -9.76666e-031 -3.51106e-033
3.26879e-033 -1.032e-030 1.02417e-032
1.9105e-032 -1.30603e-030 8.88482e-033
0.00319442 -1.61659 -8.52327e-005
6.85409e-018 1.15925e-015 5.50207e-018
-1.30357e-018 1.12694e-015 4.63674e-018
0.000223923 -1.17295 -0.00320256
1.21988e-020 2.46098e-017 8.76934e-020
-0.00233606 -1.17996 -0.00237494
0.0031629 -1.18247 -0.00320562
0.00808462 2.955 -0.158971
-0.0517145 4.8092 -0.0599884
-0.359086 3.62049 -0.304101
-0.0143588 4.16145 -0.138681
-0.0570429 3.5285 -0.216306
0.0122223 4.17994 -0.080285
-0.125488 4.58112 -0.127953
-0.0803075 4.9228 -0.000591264
-0.58501 4.8806 -0.161158
1.77389e-030 -4.83385e-032 1.30872e-031
1.83395e-030 3.49754e-032 -3.15666e-032
1.84159 -0.00337816 0.0129961
2.69554 0.00014727 -0.000441248
5.09086e-016 -2.03539e-018 7.985e-018
1.03787 -0.00342872 0.014033
2.02383 -0.00275981 0.00488888
1.10911 -0.00316282 0.0116978
2.02782 0.0021271 0.0032419
2.4793 -0.00028964 0.00131501
0.446614 1.22472 -0.0203789
-2.11749 3.69208 0.208758
-1.67591 2.22066 -0.161531
-1.09827 2.91143 0.0274267
-0.827418 2.085 -0.11252
-0.201071 3.08257 -0.0888668
-2.41069 3.62777 -0.0459147
-1.44504 4.65544 -0.077539
-1.03171 3.08013 -0.253234
2.48404e-030 -3.24206e-031 2.13951e-031
8.28209e-031 -9.25972e-031 -5.47185e-031
8.94578e-031 -3.59115e-031 -3.39994e-031
2.35791 0.608759 0.00177963
-1.80376e-016 5.83571e-017 8.35474e-018
-2.40532e-016 3.5979e-017 6.77303e-018
1.9898 -0.0834028 -0.0253317
5.22075e-016 -9.44755e-017 -2.11473e-017
1.74915 -0.117427 -0.0461072
1.66117 0.018015 -0.043387
-3.92367e-032 1.43919e-030 2.91247e-031
-0.0827446 2.18446 -0.0903247
-0.158994 2.62522 -0.00072479
-0.0979483 4.10135 -0.0540418
-0.06426 1.21193 -0.0657339
-0.1482 1.73954 -0.0428083
-0.109647 2.50662 -0.0926687
-0.11784 2.71801 -0.067327
-0.0941788 3.26339 -0.0710346
-0.0914832 3.58679 -0.0543619
2.01754e-030 -1.29021e-031 1.79604e-031
1.89024e-030 8.29939e-032 -5.52514e-031
2.62852 -0.0515895 -0.00526738
4.85122e-016 1.64375e-017 1.37338e-018
1.90563 -0.0155169 0.0122242
1.88316 0.0824812 -0.0243293
1.82197 0.071494 -0.00802572
1.79759 0.239401 0.00270071
2.4806 0.112855 0.00474724
-4.1304e-030 4.25718e-030 -3.25034e-030
-6.3877e-030 -6.94495e-031 -1.37445e-031
-7.09879e-030 -6.71743e-031 1.27968e-030
-6.18861 -0.00625971 0.00431657
-3.0533e-016 -2.10822e-017 -1.51439e-017
-5.04246e-016 -2.09765e-017 -1.8857e-017
-5.13966 -0.276466 -0.287436
-1.0445e-015 -4.4614e-017 -1.32516e-017
-4.8672 -0.291944 -0.116462
-4.96622 -0.0183433 0.0273863
8.53461e-031 2.1272e-031 1.3983e-030
-0.086837 -1.11591 0.122595
6.97276e-032 -7.14291e-031 -8.26056e-031
3.67393e-018 -1.1041e-016 5.13861e-017
0.0376066 -0.736668 0.241096
-3.93078e-017 7.89857e-017 -1.06846e-017
-0.0575248 -0.527524 0.148893
-7.43025e-017 2.06489e-016 -6.65316e-017
0.1943 -0.531195 0.0737529
-1.6307e-031 -1.25351e-030 -4.43962e-032
-7.2079e-032 -1.25712e-030 1.93117e-032
4.25761e-032 -1.86362e-030 2.81564e-033
-5.04109e-018 5.08887e-016 -1.3011e-018
0.00147639 -1.25359 0.00177139
-2.46043e-027 2.97054e-029 -3.66504e-028
0.0008451 -1.25816 -0.00222931
1.75206e-019 -5.32407e-016 -9.76952e-019
0.0013145 -1.25908 -0.00094918
1.24876e-030 5.40424e-032 4.80009e-032
1.26089e-030 2.42336e-032 5.75519e-032
2.69315 -0.000474672 2.24257e-005
2.5077e-030 -1.47374e-032 -3.87592e-032
2.09206e-016 3.05643e-020 1.08665e-019
2.01837 -0.000182191 0.00114994
-1.32286e-016 8.94763e-020 -1.95806e-020
2.02193 0.000338398 0.000260436
-4.57775e-016 -4.34357e-019 2.26589e-019
2.02384 0.00198538 -0.00158527
2.58655e-030 -2.14747e-031 -2.30453e-031
3.43e-030 -5.04582e-031 -2.14968e-031
2.76256 0.00251111 -0.00171533
2.99957e-030 -9.1439e-032 -1.13673e-032
2.04195e-016 -1.98955e-018 -1.43377e-018
2.11905 -0.00457555 -0.0102486
1.46888e-016 -2.05153e-018 -7.92479e-019
2.0958 -0.0217775 -0.0105053
3.8777e-029 2.15037e-027 1.13897e-027
2.05068 -0.0214772 -0.00565315
-7.20994e-030 1.01342e-031 -6.80547e-032
1.19744e-017 1.11048e-019 -6.66996e-020
-6.66424e-030 -9.306e-033 -2.80743e-031
-6.27302 -0.00115041 0.0143934
-6.85894e-016 -3.70564e-018 2.42327e-018
9.91492e-016 -3.00919e-019 1.31511e-018
-4.56454 -0.00459412 0.0079318
-3.86907e-016 -3.08938e-018 1.28072e-019
-4.63745 -0.0287507 0.0206943
-4.68666 -0.0212313 -0.0114494
2.69368e-031 -2.39622e-031 -2.40266e-031
-1.66899e-033 -1.08427e-030 -1.26419e-032
-0.00222224 -1.09901 0.00768578
-0.00823892 -1.12522 0.00143738
2.08102e-018 1.73643e-016 -3.45949e-019
-0.00542497 -0.666092 0.0055657
-0.00871861 -0.684668 0.000174937
-0.00596502 -0.741098 -1.40472e-005
-0.00696776 -0.640427 0.00120905
-0.00592942 -1.22661 0.00140337
1.07153e-030 -3.94244e-031 8.38885e-031
1.18552e-030 -9.88254e-031 5.6091e-031
1.73338e-030 9.10059e-032 -2.30208e-031
-1.2235e-016 1.91868e-017 -4.88569e-018
1.50064 0.0888329 0.0464028
-2.96112e-017 -9.07796e-018 6.14649e-018
1.78036 -0.114094 0.0384262
-4.92198e-017 1.04421e-017 -6.57394e-018
1.19553 0.0372477 0.041718
8.54569e-032 -1.1744e-030 -8.97223e-032
-4.21948e-018 -5.44284e-016 5.12362e-018
-0.00151262 -0.634989 0.00535215
6.92806e-018 8.99487e-016 -1.62709e-018
4.4479e-031 -1.77708e-030 4.46451e-031
3.24167e-032 -1.6382e-030 3.05872e-031
0.277729 -0.953571 0.00526677
0.456454 -1.43407 -0.00926695
1.43717e-016 -3.13443e-016 1.0412e-019
0.215648 -0.60069 -0.000923193
0.371411 -1.12808 0.0100248
0.270134 -0.632713 0.00906367
0.420928 -1.2295 0.00957248
0.360257 -1.34073 0.0180058
-2.7629e-030 1.81089e-032 3.4321e-032
-2.88147e-030 -3.44451e-032 -3.90181e-031
-5.40265e-030 4.98815e-032 4.32772e-032
-6.22347 0.00771333 0.00041273
1.82322e-029 6.15106e-028 1.57889e-027
1.38024e-029 8.24061e-028 1.51688e-027
-4.60736 0.00627932 0.0131125
-1.22244e-016 3.28088e-019 2.05981e-020
-4.62346 0.0140204 -0.00252228
-4.6268 0.00631125 0.00376299
2.99435e-030 -3.75015e-031 -2.90382e-032
-1.17405e-016 -6.5055e-019 9.07678e-019
2.73986 -0.0152539 -0.0145254
6.06113e-016 -1.80328e-018 -4.9986e-018
2.02709 -0.0193126 -0.0153967
2.01848 0.00289874 -0.00808747
2.03605 0.003673 -0.0140768
2.03066 0.00740081 -0.01214
2.74249 0.0154601 -0.00790514
-1.41831e-031 -8.89439e-031 7.61419e-032
-1.87493e-031 -9.69955e-031 2.51113e-031
1.00357e-031 -1.81233e-030 8.00274e-034
0.0316801 -1.62243 0.000805132
8.47813e-019 -8.0331e-017 5.03841e-019
-2.72584e-019 4.76159e-017 -2.3854e-019
0.0169677 -1.19669 0.00372416
1.97577e-027 -1.24409e-029 -1.75019e-027
0.0156164 -1.20104 0.00662913
0.00801921 -1.21233 0.00468288
1.05285e-031 -1.51583e-030 -4.92404e-032
3.5016e-032 -1.61642e-030 -1.75999e-031
0.219501 -1.60965 -0.000542091
1.13669e-017 -1.48551e-016 -1.08506e-018
0.0483394 -1.22587 -0.000712768
0.118151 -1.16691 -0.00604003
0.0521546 -1.26171 -0.0055476
0.131583 -1.23136 -0.00587001
0.0996876 -1.61472 0.000775401
1.31875e-030 1.75226e-032 5.79725e-031
4.68557e-016 4.03706e-018 8.23402e-018
-5.51182e-030 1.64462e-028 -1.87108e-027
1.9015 0.0112005 0.0289496
-4.29245e-030 5.8241e-032 -2.91993e-031
-4.03269 0.0122744 0.0285143
-4.13528 -0.0148464 0.0311061
-2.6095 0.0150527 0.0247768
-2.33722 -0.0176317 0.0233585
-4.64047 0.00227767 0.00257939
-4.50945 0.00137379 0.0223651
-5.63365 0.00346325 0.00747133
-5.6836 -0.000611892 0.0056881
1.8424e-030 -1.42663e-030 8.73814e-031
1.22973e-030 4.89144e-031 -1.15253e-030
-5.70041e-017 -4.69997e-017 -1.38732e-027
2.22102 0.618975 0.141236
1.75313 0.0194007 -0.0481839
1.86808 0.193037 0.00841826
1.84093 0.00676475 -0.060438
1.8126e-030 -1.61046e-030 4.42812e-031
-8.34853e-031 -1.14912e-030 1.10444e-031
9.11626e-032 -5.7635e-031 -3.4533e-032
0.334825 -1.05566 -0.0137922
5.27816e-017 -1.43381e-016 2.33061e-018
-3.80301e-017 9.55336e-017 -4.83634e-019
0.224069 -0.558569 0.00321045
-2.9892e-018 1.00786e-017 -2.49412e-021
0.181053 -0.614997 0.000389659
0.177708 -0.557998 -0.00712612
1.25982e-030 -8.03488e-033 -2.1015e-033
-6.0739e-017 -1.13753e-019 -3.3881e-020
2.55868e-030 2.57868e-032 3.2249e-032
4.20806e-016 3.58318e-019 1.70848e-019
2.02656 -0.00035134 0.000349171
1.27432e-016 -5.61513e-020 4.96947e-020
2.02937 0.00242103 0.000762045
3.47478e-016 2.02109e-019 1.88243e-019
2.03036 -0.00108027 0.000718992
9.04506e-031 4.24595e-031 7.87196e-031
0.248441 3.79952 0.174902
0.809007 1.56538 0.0296884
0.120876 2.22435 -0.24501
0.747343 3.45673 -0.0468857
0.438213 2.77084 0.00119212
-0.246748 4.70623 -0.050329
1.1676e-030 3.00574e-030 -1.04988e-030
0.0880564 4.36216 -0.109434
1.03952 3.5282 -0.0889278
0.135178 2.73866 -0.254614
0.36352 2.90064 -0.374889
0.408876 4.67547 0.103643
-0.069663 4.48809 -0.192616
3.62835e-030 2.35898e-032 -5.90251e-032
2.72615e-030 -1.72392e-031 2.27248e-032
2.72133 -0.00837192 -0.00739616
1.54367e-030 1.20164e-031 -5.21744e-032
5.84293e-017 1.05089e-018 -2.53867e-019
2.05598 -0.0134004 -0.0087125
6.44718e-017 -3.43109e-019 -3.36623e-019
2.07566 -0.0114154 -0.0070251
-1.42527e-029 2.22121e-027 -8.66452e-028
2.02239 -0.00524879 -0.00917539
3.50388e-030 1.93531e-031 -2.04106e-031
2.98606e-030 5.93493e-032 1.62354e-032
-1.29564e-029 -2.32803e-027 4.33058e-028
-4.82916e-016 4.05047e-018 3.00063e-018
2.05026 -0.0110228 -0.00868868
-5.46654e-016 6.24771e-018 3.4682e-018
1.97291 -0.0183733 -0.00855218
2.6051e-030 2.01041e-032 3.4965e-032
1.26908e-030 -1.77716e-032 -7.24317e-033
1.29051e-030 -3.09881e-032 -5.8822e-032
3.08392e-016 -1.13464e-019 2.36316e-019
-8.52505e-017 1.31658e-020 1.79595e-020
2.0308 -0.000435552 0.000320943
-3.07955e-016 8.9004e-020 -9.9652e-020
2.02889 -0.000799993 0.00176928
2.02786 -0.000220629 -0.000881076
-8.75007e-017 -1.04178e-017 -2.31247e-017
3.49506e-033 -1.00417e-030 -4.23334e-033
-7.95001e-033 -1.11327e-030 -4.80593e-032
-0.00755814 -1.1077 -0.00695237
-5.11186e-019 -6.487e-017 -8.32018e-019
-0.0021471 -1.18636 0.000223841
-0.00738769 -0.638393 -0.00720432
0.000646454 -1.20633 -0.00023892
-0.00275716 -0.723282 -0.00663295
-0.00125717 -1.47498 -0.00212954
-3.20238e-017 2.21839e-019 -3.48388e-020
4.81801e-016 -5.59047e-018 -9.17021e-019
-3.86836e-016 3.57468e-018 2.12592e-018
2.00469 -0.023577 -0.00917637
-5.70635e-017 2.63074e-019 1.27101e-019
1.98855 -0.0111554 -0.00042582
2.73517e-030 1.38358e-031 1.81785e-031
1.57146e-030 -4.36065e-031 -1.88288e-031
-2.55595e-016 1.53836e-018 4.92524e-019
4.78068e-016 -6.55377e-018 -1.94102e-018
1.78174e-016 -1.93538e-018 -2.02004e-019
1.9377 -0.0107371 -0.00105517
1.94526 -0.0241871 -0.00905666
-4.19116e-030 -2.15574e-030 -8.19046e-031
-3.64291 0.756945 -0.0513271
5.53025e-029 -1.35234e-027 1.2991e-027
-4.92748 -0.791932 -0.290926
-3.46437 -1.00734 -0.122122
-3.53607 -0.476524 -0.113504
-5.191 0.275436 -0.0372592
-4.08967e-030 1.32814e-031 2.63029e-031
-8.23011e-016 -1.43278e-017 -3.30212e-017
-1.16352e-015 4.50469e-018 2.19457e-018
-4.61773 0.0135671 0.0145487
-3.0377e-016 6.14306e-019 -7.36963e-021
-0.0342327 3.03304 -0.134243
0.000534427 3.22608 -0.159821
-0.0471143 4.20145 -0.113692
-0.096995 3.51857 -0.235984
-6.77162e-032 2.19894e-031 -1.35837e-031
-3.01898e-031 5.3143e-031 -3.46085e-031
-3.68848e-031 6.34032e-031 -6.43371e-031
-1.61885e-017 3.83663e-016 -2.60696e-017
-6.60917e-028 -1.81946e-028 -1.33505e-027
-0.0376143 1.21019 -0.0623824
-1.66806e-017 3.44754e-016 -3.36979e-017
-0.0542294 1.0782 -0.064058
-0.0460185 1.23087 -0.100044
4.38974e-031 -1.73811e-031 -8.78633e-031
4.14081e-031 -4.47521e-031 8.33328e-031
2.3353e-019 7.22608e-018 7.57402e-019
0.0831864 0.904462 0.0199104
-0.255944 0.178487 0.0136047
0.40428 0.372357 0.0299715
0.0406894 -0.0333605 0.0343395
-0.233104 0.413682 0.0049365
4.50208e-032 -1.44252e-030 6.52633e-032
2.19719e-017 -3.19498e-016 -2.37915e-018
0.109683 -1.13082 -0.00562054
0.0472666 -1.18916 0.00325698
-4.93809e-018 1.01659e-016 3.24783e-019
3.63672e-031 -1.19984e-030 1.15681e-031
3.8468e-031 -1.31497e-030 3.95904e-031
1.33901e-027 7.16124e-017 1.70783e-027
0.109893 -1.1919 0.00107855
8.63744e-028 6.5489e-029 2.01828e-027
0.169195 -1.14576 0.0011005
1.31414e-027 2.3941e-028 2.15706e-027
0.189905 -1.20204 0.0108131
1.10164e-031 1.57579e-030 3.14241e-031
-0.0582269 1.98851 -0.149286
-0.0607559 1.25141 -0.087035
-0.119059 2.63436 -0.118674
-0.0584966 2.80399 -0.124004
-0.0837801 3.76605 -0.0938692
4.71425e-031 6.42742e-031 -2.37101e-031
3.36373e-030 2.99823e-030 -1.23724e-030
0.155237 2.24375 -0.0200148
-7.18407e-032 1.65046e-030 5.83683e-031
-1.13294e-016 -7.54899e-016 -1.28393e-017
0.114108 1.07849 -0.00345359
1.36369e-016 1.19826e-015 -1.08143e-018
0.132841 1.17167 0.012636
1.69478e-027 -2.85026e-028 -8.97325e-028
0.1058 1.29366 -0.0076822
-3.28467e-032 -1.67065e-030 -9.34836e-032
3.23428e-017 -3.4802e-016 -8.3724e-019
0.0570623 -1.28733 -0.00463273
0.138008 -1.2934 0.00146127
-5.56299e-030 2.35679e-031 -1.87075e-032
-6.23827e-030 1.48602e-031 -5.14295e-032
-6.19976 -0.00783558 0.00655917
1.0371e-015 -2.28146e-018 -4.49056e-019
-4.91709 0.0151014 -0.0028837
8.47318e-016 -1.98747e-018 1.94873e-018
-4.8553 0.0140344 0.00975497
-1.28217e-016 2.83216e-019 -5.72841e-020
-4.98813 -0.00305656 -0.00948823
-3.01518e-030 9.68002e-033 -8.2173e-032
1.3013e-029 -3.92236e-028 1.69815e-027
2.96398e-016 -5.63124e-019 -4.02289e-020
-4.64677 0.00153672 0.00356452
-1.01479e-017 1.8663e-016 -2.02503e-017
-0.0457456 1.88484 -0.171637
-0.0756578 2.88682 -0.222264
-0.131673 2.16954 -0.228185
-0.118944 3.98965 -0.118391
1.07889e-030 -2.08314e-030 -8.54034e-031
4.59051e-031 -2.25131e-030 7.86059e-031
0.386546 -1.27903 -0.0114892
0.301209 -1.19377 -0.00144687
-4.07234e-017 4.19823e-017 2.76188e-018
0.347067 -0.72297 0.0179794
0.171066 -1.09809 -0.0937337
0.272809 -0.794292 0.00847729
0.325809 -0.822563 0.00592355
0.478532 -1.35581 -0.0175466
-4.91993e-018 7.54439e-017 -7.797e-018
-0.0972585 2.62096 -0.176261
-5.44636e-032 7.21449e-031 -3.70883e-031
-1.65221e-032 1.41199e-030 -3.26459e-031
-4.01035e-028 -1.96649e-028 -1.48314e-027
-4.73884e-018 5.79695e-016 -6.71291e-017
-0.0209771 1.73092 -0.120802
2.00855e-017 -7.3639e-016 9.32156e-017
-0.0131884 1.8712 -0.187833
6.97162e-031 -5.34701e-032 -2.88653e-031
0.241548 -0.47702 -0.0146248
0.257291 -0.501198 0.00749252
0.360429 -0.719488 -0.0049079
0.0277223 -0.884151 0.014476
-0.0621294 -1.00831 0.0258997
0.324237 -1.28188 0.013042
1.92669e-031 -1.61072e-030 1.2345e-031
-9.00452e-033 -1.28652e-030 -3.52104e-032
5.08958e-032 -5.56798e-031 9.57457e-032
2.71244e-019 -8.26039e-017 -2.12755e-019
0.00495195 -1.18833 0.0027935
-3.72077e-018 5.85862e-016 -3.06679e-018
0.00668985 -1.20073 0.00188694
1.92231e-018 -7.13384e-016 1.3353e-018
0.00550664 -1.19965 0.00543303
-4.0104e-033 -9.63889e-031 8.98749e-033
1.00712e-032 -1.73414e-030 1.68541e-033
-2.17586e-027 6.11776e-030 8.87073e-028
3.30299e-019 -7.68194e-017 2.48095e-019
0.0173912 -1.25303 0.00483767
-1.51062e-019 -5.39814e-017 5.2203e-018
0.00559192 -1.2259 0.00348012
0.00564228 -1.2312 0.000968019
3.18042e-032 -1.81359e-030 1.55951e-031
-2.4544e-019 2.43495e-016 -5.13916e-019
5.19649e-019 -1.82235e-016 5.97306e-019
5.45096e-019 -1.35797e-016 7.6353e-019
0.00258946 -1.22768 0.0036275
4.45753e-031 -1.02611e-030 7.90788e-031
0.332539 -0.747491 0.0179457
3.96943e-018 -1.26944e-017 5.52393e-019
0.305756 -0.977004 0.0155236
0.209352 -0.606863 0.0146007
0.235687 -0.746996 0.0296311
0.158427 -0.464486 0.0248811
0.397016 -0.95066 0.00170922
2.26216e-030 -4.85175e-032 1.17087e-031
2.58513e-030 1.04347e-031 -1.82025e-031
1.74709e-030 -9.02795e-032 3.21785e-032
-1.18918e-029 6.37921e-028 -2.21855e-027
-7.4284e-017 6.19482e-019 -3.71642e-020
1.97847 -0.017908 -0.00203731
1.11105e-017 -1.59101e-019 -1.04528e-021
1.99047 -0.0336695 -0.00358782
1.9982 -0.0114575 -0.00392125
1.25578e-032 -1.12668e-030 1.23961e-032
0.00443575 -1.03325 0.00635759
0.0038751 -0.576699 0.004931
0.00193215 -0.71963 0.00670224
-0.00144828 -1.22104 0.00149996
0.00202733 -1.16879 0.00607759
0.00169803 -1.48197 0.00180889
0.00071147 -1.4776 0.000327062
1.90273 -0.0314289 0.0147222
1.88586 -0.0365806 -0.00630694
2.72655 -0.0378325 -0.0120267
2.22879e-017 -8.59443e-016 8.04799e-017
-1.82443e-017 5.13398e-016 -5.67185e-017
-0.0482536 1.79518 -0.134501
1.072e-030 -1.43418e-030 2.24443e-031
1.62947e-030 -7.4226e-031 -2.62132e-032
-2.31276e-027 -2.39639e-027 2.57944e-028
0.299196 -0.461128 0.010465
-9.40373e-017 6.32645e-017 3.21184e-018
0.415092 -0.826083 0.0102889
-7.1837e-017 1.09056e-016 -7.0173e-019
4.21986e-017 -1.07058e-015 1.02311e-016
-1.0979 2.63415 0.253652
-1.32838 4.63272 0.308898
-0.501255 3.96249 0.359499
-5.56348e-018 1.79332e-017 3.45327e-018
-3.98245e-032 1.11891e-030 2.04826e-031
2.58997e-016 -7.10405e-016 -1.06078e-016
-0.109526 2.02566 0.275686
-1.29888e-018 3.6329e-017 5.99083e-018
-2.8735e-017 7.9346e-016 1.24626e-016
-0.0360591 2.05767 0.243303
0.340056 -0.276913 -0.00227446
3.03697e-030 1.97645e-030 -2.71791e-030
1.08373e-016 -1.47004e-015 2.15008e-016
-0.129278 3.31413 -0.173475
-0.419951 3.49486 -0.439809
-4.6253e-017 1.47049e-015 -2.11636e-016
0.0688646 2.93875 -0.10914
-0.112612 4.44174 0.0474295
-0.105552 4.49632 -0.0090284
-0.080016 4.23786 -0.0755606
-0.0958666 4.63114 -0.0585879
-0.0774385 4.49394 -0.0033608
-0.0919453 4.90537 0.00324482
-0.106615 4.82588 -0.045994
-0.161827 2.38147 -0.120937
-0.171796 3.43313 -0.032798
8.19312e-031 -1.41309e-030 -3.16029e-031
5.34483e-031 -1.33575e-030 1.42098e-032
2.47182e-027 3.41552e-028 -1.5061e-028
0.170353 -0.797131 -0.015276
0.176372 -1.07806 -0.0115992
0.147644 -0.686023 -0.00941914
0.162502 -1.09634 -0.0104107
0.314027 -1.4696 -0.00884955
3.20795e-030 -2.95896e-031 7.59731e-032
-1.14503e-028 1.9055e-027 -1.85583e-027
4.94507e-029 2.01344e-027 -2.00497e-027
2.08021 -0.0413019 -0.0204948
1.36447e-030 -6.37949e-031 5.71465e-031
-1.10455 -1.73524 0.0201817
-0.88478 -0.67518 0.0922412
-1.26759 -1.19896 0.00286376
-0.395718 -0.743827 0.149182
-0.898498 -1.25102 0.0539142
-0.458254 -1.03646 0.0614111
-0.53154 -1.52317 0.0347394
2.59563e-030 -7.08985e-033 2.215e-033
2.58998e-030 6.09859e-032 4.54456e-033
1.26329e-030 1.00784e-032 2.71348e-033
-3.93813e-016 4.49965e-020 -7.82722e-020
2.029 -5.57868e-005 0.000892583
2.99102e-016 3.47964e-021 7.85677e-020
2.02975 -4.49834e-005 -0.00164168
-3.95257e-016 -6.17267e-021 2.65829e-019
2.02683 -0.000150031 -0.000169707
1.85939 -0.0478894 0.00144586
-3.73352e-030 -4.66043e-032 2.10943e-031
-6.68917e-030 8.03927e-032 3.32157e-031
-5.93168e-030 7.27162e-032 -6.5333e-031
1.281e-015 6.12046e-018 -8.71951e-018
-1.51354e-016 -1.03607e-018 5.64498e-019
-4.58396 -0.0479126 0.0280856
-1.13038e-015 -3.67682e-018 3.33912e-018
-4.54656 0.0186988 0.0199112
-4.64543 0.00562944 0.00183548
0.440296 -1.19382 0.0248155
0.509503 -1.22771 -0.0171404
-4.70127e-031 8.41084e-031 7.35857e-031
-9.59151e-031 4.93083e-031 1.35312e-030
-4.74979e-030 1.2145e-031 2.94995e-032
-4.08709 -0.0227198 -0.0153958
2.46271e-016 4.73507e-018 2.84835e-018
-9.04105e-016 -1.70713e-017 -9.80869e-018
-2.29809 -0.0391752 -0.0274834
1.22943e-015 -4.74011e-017 2.70199e-017
-2.46365 -0.0244476 -0.0116528
-2.29384 -0.0203032 -0.00786205
-3.23103e-030 5.27529e-033 -1.20855e-031
1.82604e-016 -1.19194e-018 -6.76199e-019
-6.77283e-030 -7.33864e-032 -1.57564e-031
2.34239e-016 -1.18673e-018 9.36829e-020
-4.73952 0.013402 -0.0142436
3.26758e-016 -1.42988e-018 1.24164e-018
-4.74217 0.0227268 0.0119023
7.16158e-016 -4.17645e-018 -2.06722e-019
-4.76698 0.0184379 -0.00984934
0.378844 -1.06028 -0.0137103
-1.88169e-016 3.34293e-016 -6.39868e-018
0.304112 -0.604334 -0.00445191