# vtk DataFile Version 2.0 
output.vtk, Created by Freefem++, via gregorio
ASCII
DATASET UNSTRUCTURED_GRID
POINTS 7451 double
-3.79965 2.23652 0.040848
-4.13429 2.05574 0.276253
-4.09122 2.24524 0.070091
-4.01836 2.27766 0.330071
-3.96697 2.14613 0.158551
-3.94543 2.24088 0.0554695
-3.90901 2.25709 0.185459
-4.11275 2.15049 0.173172
-4.07633 2.1667 0.303162
-4.05479 2.26145 0.200081
-4.81817 0.732763 -0.840268
-4.76136 0.37264 -0.736193
-5.12328 0.495929 -0.550642
-4.73872 0.559667 -0.434419
-4.78977 0.552702 -0.788231
-4.97072 0.614346 -0.695455
-4.77845 0.646215 -0.637344
-4.94232 0.434285 -0.643417
-4.75004 0.466153 -0.585306
-4.931 0.527798 -0.49253
-7.58244 -0.891248 -0.453516
-8 -0.559587 0.124298
-7.26059 -0.264226 0.250847
-7.58828 -0.999993 0.00381
-7.79122 -0.725418 -0.164609
-7.42152 -0.577737 -0.101334
-7.58536 -0.94562 -0.224853
-7.6303 -0.411906 0.187573
-7.79414 -0.77979 0.064054
-7.42444 -0.632109 0.127328
-5.46564 0.048234 0.998836
-5.51396 -0.351144 0.936321
-5.02851 -0.125769 0.598961
-5.56665 -0.148801 0.504295
-5.4898 -0.151455 0.967578
-5.24708 -0.0387675 0.798898
-5.51614 -0.0502835 0.751565
-5.27124 -0.238457 0.767641
-5.5403 -0.249972 0.720308
-5.29758 -0.137285 0.551628
-4.20269 -2.80441 0.102764
-3.63085 -2.57461 -0.287529
-4.13183 -2.29387 0.255347
-4.14432 -2.47254 -0.273935
-3.91677 -2.68951 -0.0923825
-4.16726 -2.54914 0.179055
-4.1735 -2.63848 -0.0855855
-3.88134 -2.43424 -0.016091
-3.88759 -2.52358 -0.280732
-4.13807 -2.38321 -0.009294
-6.25062 -0.085247 0.575431
-6.51584 -0.423084 -0.15939
-6.46019 0.447486 0.293263
-6.75561 -0.174737 0.413139
-6.38323 -0.254165 0.20802
-6.35541 0.181119 0.434347
-6.88822 -0.343655 0.0457285
-6.86039 0.09163 0.272055
-6.48801 0.012201 0.0669365
-4.88162 0.371746 0.655425
-4.51246 -0.112716 0.623981
-4.65723 0.09269 0.995695
-4.69704 0.129515 0.639703
-4.95507 0.122989 0.627193
-4.76942 0.232218 0.82556
-4.77049 -0.119243 0.611471
-4.58484 -0.010013 0.809838
-4.84287 -0.0165395 0.797328
-3.75099 1.20677 0.090288
-3.64118 0.745776 0.266863
-4.09568 0.790235 0.315934
-3.78936 1.07086 0.69071
-3.69609 0.976272 0.178575
-3.92333 0.998502 0.203111
-3.77017 1.13882 0.390499
-3.86843 0.768006 0.291399
-3.71527 0.908319 0.478787
-3.94252 0.930549 0.503322
-2.18572 0.40145 0.915881
-1.75478 0.245881 0.526965
-1.94554 -0.013967 0.999902
-1.76886 0.356252 0.93439
-1.97025 0.323665 0.721423
-2.06563 0.193741 0.957891
-1.97729 0.378851 0.925135
-1.85016 0.115957 0.763433
-1.76182 0.301067 0.730678
-1.8572 0.171143 0.967146
-5.06116 0.824959 0.710182
-4.88551 0.773989 0.80113
-4.92155 0.772883 0.437198
-5.01596 0.602336 0.857802
-4.97333 0.799474 0.755656
-4.99135 0.798921 0.57369
-5.03856 0.713647 0.783992
-4.90353 0.773436 0.619164
-4.95074 0.688163 0.829466
-4.96876 0.687609 0.6475
-2.34262 2.51752 0.051733
-2.4672 2.85727 -0.311185
-2.29554 2.81673 0.086134
-2.65762 2.74748 0.16058
-2.40491 2.6874 -0.129726
-2.31908 2.66712 0.0689335
-2.50012 2.6325 0.106157
-2.38137 2.837 -0.112526
-2.56241 2.80238 -0.0753025
-2.47658 2.7821 0.123357
-3.50303 -3.76846 -0.636668
-3.49422 -3.29308 -1.15018
-3.31427 -3.71149 -1.25136
-2.90724 -3.34218 -0.858121
-3.49863 -3.53077 -0.893424
-3.40865 -3.73997 -0.944014
-3.20514 -3.55532 -0.747394
-3.40425 -3.50228 -1.20077
-3.20073 -3.31763 -1.00415
-3.11076 -3.52683 -1.05474
-4.0054 2.49156 -0.125899
-3.5956 2.50054 -0.194198
-3.83412 2.54803 0.0159
-3.8005 2.49605 -0.160049
-3.90253 2.36404 -0.0425255
-3.91976 2.5198 -0.0549995
-3.69763 2.36853 -0.076675
-3.71486 2.52428 -0.089149
-3.81689 2.39228 0.028374
-3.73452 -3.68531 -1.05781
-3.52439 -3.6984 -1.15459
-3.61437 -3.4892 -1.104
-3.61877 -3.72688 -0.84724
-6.37864 0.944563 0.328331
-6.25891 0.813305 0.581838
-6.65332 0.772267 0.635298
-6.31878 0.878934 0.455085
-6.41941 0.696025 0.310797
-6.51598 0.858415 0.481815
-6.35955 0.630395 0.43755
-6.45612 0.792786 0.608568
-6.55675 0.609877 0.46428
1.62066 -0.841518 -0.540229
1.89324 0.238579 -0.195511
2.01627 -0.690819 -0.723027
2.25185 -0.211859 0.261412
1.75695 -0.30147 -0.36787
1.81846 -0.766169 -0.631628
1.93625 -0.526689 -0.139408
1.95475 -0.22612 -0.459269
2.07254 0.01336 0.0329505
2.13406 -0.451339 -0.230807
-2.56949 2.06853 0.305158
-2.91403 1.60744 0.564909
-3.02709 2.08175 0.021586
-2.87501 2.07662 0.630995
-2.74176 1.83799 0.435033
-2.79829 2.07514 0.163372
-2.72225 2.07258 0.468077
-2.97056 1.8446 0.293247
-2.89452 1.84203 0.597952
-2.95105 2.07919 0.32629
-5.39985 0.358755 0.933432
-5.34934 0.453264 0.543553
-5.56264 0.558471 0.829524
-5.70805 0.297641 0.954678
-5.37459 0.40601 0.738492
-5.48124 0.458613 0.881478
-5.55395 0.328198 0.944055
-5.45599 0.505868 0.686538
-5.52869 0.375452 0.749116
-5.63535 0.428056 0.892101
-4.17913 0.323834 -0.696515
-4.36183 0.516245 -0.417662
-4.60784 0.019305 -0.528365
-4.46586 0.364911 -0.72315
-4.27048 0.42004 -0.557088
-4.39349 0.17157 -0.61244
-4.3225 0.344372 -0.709832
-4.48483 0.267775 -0.473013
-4.41384 0.440578 -0.570406
-4.53685 0.192108 -0.625757
-5.9377 0.438799 -0.558905
-5.87927 0.529091 -0.848565
-6.25926 0.555743 -0.831354
-6.07929 0.245277 -0.969453
-5.90849 0.483945 -0.703735
-6.09848 0.497271 -0.695129
-6.00849 0.342038 -0.764179
-6.06927 0.542417 -0.839959
-5.97928 0.387184 -0.909009
-6.16928 0.40051 -0.900404
-3.64743 2.72944 0.180305
-3.74077 2.63873 0.0981025
-3.72354 2.48298 0.110576
-3.62151 2.61499 -0.0069465
-3.98168 0.388062 0.141859
-3.76543 0.320245 0.603448
-3.81143 0.566919 0.204361
-3.70331 0.533011 0.435156
-4.03868 0.589149 0.228897
-3.87356 0.354154 0.372653
-3.93055 0.55524 0.459691
-6.17342 0.027823 -0.593282
-6.59748 0.255766 -0.966739
-6.35964 0.547779 -0.240473
-6.21634 0.291783 -0.712318
-6.42837 0.405755 -0.899047
-6.30945 0.551761 -0.535914
-6.38545 0.141794 -0.78001
-6.26653 0.287801 -0.416878
-6.47856 0.401772 -0.603606
-5.98474 0.742767 -0.66955
-5.96122 0.590783 -0.614227
-6.122 0.649255 -0.750452
-5.93201 0.635929 -0.759057
-5.86659 0.345457 -0.129882
-5.96054 -0.099592 -0.035866
-6.02 0.18664 -0.361582
-6.11312 0.446618 -0.185177
-5.91357 0.122933 -0.082874
-6.06698 -0.0358845 -0.314574
-6.16009 0.224094 -0.13817
-1.10421 0.363269 -0.931684
-0.773878 0.737644 -0.67519
-0.520452 0.269543 -0.962988
-0.384634 0.008888 -0.353445
-0.939043 0.550457 -0.803437
-0.812329 0.316406 -0.947336
-0.74442 0.186079 -0.642564
-0.647165 0.503594 -0.819089
-0.579256 0.373266 -0.514317
-0.452543 0.139215 -0.658216
-2.85287 -3.00249 -1.21636
-3.23054 -2.92385 -1.196
-3.06719 -3.3306 -1.25351
-2.88006 -3.17233 -1.03724
-3.06889 -3.13301 -1.02706
-2.98722 -3.33639 -1.05581
-3.0417 -2.96317 -1.20618
-2.96003 -3.16654 -1.23493
-3.14886 -3.12722 -1.22475
-3.38618 -2.05134 -0.098565
-2.37808 -2.56123 -0.134541
-2.49252 -2.47812 0.422472
-2.41131 -1.89586 0.044632
-2.88213 -2.30628 -0.116553
-2.93935 -2.26473 0.161954
-2.89875 -1.9736 -0.0269665
-2.4353 -2.51967 0.143966
-2.39469 -2.22855 -0.0449545
-2.45192 -2.18699 0.233552
-1.85713 -0.413967 0.42138
-1.65927 -0.390905 0.920431
-1.2503 -0.077569 0.384148
-1.80595 -0.084043 0.474172
-1.70702 -0.072512 0.723698
-1.50254 0.084156 0.455557
-1.7582 -0.402436 0.670905
-1.55371 -0.245768 0.402764
-1.45478 -0.234237 0.652289
-2.09043 2.55218 0.167395
-2.0659 2.66009 -0.048555
-2.19298 2.68445 0.126765
-2.18072 2.73841 0.0187895
-2.07816 2.60614 0.05942
-2.21652 2.53485 0.109564
-2.20426 2.58881 0.001589
-4.01665 2.44382 0.136481
-3.97233 2.67361 0.084512
-3.92539 2.49592 0.0761905
-3.99449 2.55872 0.110496
-4.01103 2.46769 0.005291
-3.90323 2.61082 0.050206
-3.98887 2.58259 -0.0206935
-3.92754 1.80484 -0.220103
-4.28096 1.83407 -0.225431
-4.13592 1.88983 -0.461486
-4.146 2.03152 -0.278406
-4.10425 1.81945 -0.222767
-4.03173 1.84734 -0.340795
-4.03677 1.91818 -0.249254
-4.20844 1.86195 -0.343458
-4.21348 1.9328 -0.251918
-4.14096 1.96068 -0.369946
-4.04038 -5 0.949212
-3.62468 -5 1.26221
-3.84559 -4.54287 1.07336
-3.71487 -5 0.728948
-3.83253 -5 1.10571
-3.94299 -4.77144 1.01129
-3.87763 -5 0.83908
-3.73513 -4.77144 1.16779
-3.66977 -5 0.99558
-3.78023 -4.77144 0.901156
-1.37334 0.812082 -0.583544
-0.975724 0.961208 -0.275823
-1.19336 -0.166381 -0.273753
-1.17453 0.886645 -0.429683
-1.07361 0.774863 -0.629367
-1.28335 0.32285 -0.428648
-0.874801 0.849426 -0.475506
-1.08454 0.397413 -0.274788
-0.983618 0.285631 -0.474471
-3.83515 -1.82017 -0.741539
-3.34976 -1.58414 -0.592596
-3.50394 -2.07825 -1.02313
-3.59245 -1.70215 -0.667067
-3.66955 -1.94921 -0.882335
-3.61067 -1.93575 -0.420052
-3.42685 -1.83119 -0.807863
-3.36797 -1.81774 -0.345581
-3.44506 -2.06479 -0.560848
-2.72946 0.769161 0.094533
-2.75119 0.681139 -0.326037
-2.98528 1.02631 -0.281501
-3.08113 0.734324 -0.34324
-2.74032 0.72515 -0.115752
-2.85737 0.897737 -0.093484
-2.90529 0.751742 -0.124353
-2.86823 0.853726 -0.303769
-2.91616 0.707731 -0.334639
-3.03321 0.880319 -0.31237
-2.94023 -2.47675 -0.674772
-3.14499 -2.03044 -0.633684
-3.22209 -2.2775 -0.848951
-3.16321 -2.26404 -0.386669
-3.03914 -4.25341 0.579285
-2.64287 -3.80807 0.20828
-2.47531 -4.18593 0.714333
-2.97264 -3.41482 0.618231
-2.84101 -4.03074 0.393783
-2.75723 -4.21967 0.646809
-3.00589 -3.83412 0.598758
-2.55909 -3.997 0.461307
-2.80776 -3.61144 0.413255
-2.72397 -3.80037 0.666282
-2.39684 -0.595487 -0.803365
-1.98884 -0.54749 -0.836812
-2.24172 -0.466498 -0.098067
-2.21295 -0.01831 -0.514797
-2.19284 -0.571489 -0.820088
-2.31928 -0.530992 -0.450716
-2.3049 -0.306899 -0.659081
-2.11528 -0.506994 -0.46744
-2.1009 -0.2829 -0.675804
-2.22734 -0.242404 -0.306432
-3.36239 -4.55484 -1.31864
-3.11171 -4.25429 -0.873787
-2.86199 -4.55394 -1.36046
-2.79118 -5 -0.96439
-3.23705 -4.40456 -1.09621
-3.11219 -4.55439 -1.33955
-3.07678 -4.77742 -1.14151
-2.98685 -4.40411 -1.11712
-2.95144 -4.62714 -0.919088
-2.82658 -4.77697 -1.16243
-3.88203 2.65205 -0.416886
-3.48121 2.84727 -0.340672
-3.82273 3 -0.474998
-3.72541 2.76868 -0.627028
-3.68162 2.74966 -0.378779
-3.85238 2.82603 -0.445942
-3.80372 2.71037 -0.521957
-3.65197 2.92364 -0.407835
-3.60331 2.80798 -0.48385
-3.77407 2.88434 -0.551013
[...]
POINT_DATA 7451
 
FIELD FieldData 2
velocity 3 7451 double
-0.0977301 -0.283306 -0.000178314
2.50005e-034 -8.19991e-033 -1.41811e-033
-1.24531e-033 -3.91348e-033 -3.08863e-034
-5.89855e-033 -7.06593e-033 1.30396e-033
-0.0636311 -0.153681 0.000454237
-0.0579894 -0.157716 -0.000137439
-0.0601635 -0.165826 0.00133571
-1.43858e-018 -3.35629e-018 8.02686e-021
4.07217e-018 9.42099e-018 -9.61375e-020
1.88524e-029 -7.18349e-030 -4.36787e-030
-1.82973e-032 -6.05017e-033 -4.09049e-034
-0.34727 -0.0930367 0.000545435
-0.530579 -0.122177 0.00285234
-0.594474 -0.192552 0.00584844
-0.190997 -0.0646185 0.00689093
-0.258819 -0.0817463 0.00775053
-0.341051 -0.125494 0.0073564
-0.45227 -0.116103 0.00428182
-0.500329 -0.146469 0.0043627
-0.571313 -0.161625 0.00487963
-1.47008e-031 -9.55834e-033 -6.04708e-033
-0.714001 0.00501898 -0.0007235
-0.930968 -0.000483342 -0.00050576
-1.25507e-031 -6.34799e-033 4.70154e-034
-0.464888 0.0034891 -6.89677e-005
-0.703675 -1.48203e-005 -0.00223797
-1.13057e-016 8.62628e-020 -2.27319e-019
-0.849096 4.9892e-006 9.00888e-006
-0.403805 0.00500654 -0.000966968
-0.624512 0.000431392 0.000250495
-5.06844e-032 -1.36726e-033 -4.90535e-033
-5.67291e-032 -2.59954e-034 -5.78187e-033
-0.587106 -0.0571148 -0.00282338
-0.740641 -0.0382037 -0.00187554
-1.22231e-016 -4.63313e-018 -1.38427e-018
-0.352241 -0.0300367 -0.0016588
-0.439332 -0.0256764 -0.00204672
-0.335269 -0.0193865 -0.00427803
-0.420554 -0.0167376 -0.00442492
-0.667363 -0.0502481 -0.00188375
5.4911e-033 5.26434e-032 -7.84253e-035
0.0267485 0.473537 0.0113283
1.32896e-032 7.95214e-032 -7.17902e-034
8.18639e-033 3.07303e-032 1.44988e-033
0.0222933 0.278997 0.00248273
-4.35504e-017 -6.03975e-016 5.02876e-018
-3.8786e-018 -3.82033e-017 -4.04486e-019
0.024804 0.314238 0.000213461
0.0227066 0.269276 0.00647956
-5.48941e-017 -5.57596e-016 -1.65448e-018
-0.698628 -0.0129164 -0.00204147
-0.843052 -0.00892153 0.000253092
-0.765498 -0.0107862 -0.00116167
-0.850747 -0.00363614 -0.000468663
-0.95094 -0.0140941 -0.0016821
-0.831795 -0.0148792 -0.00198095
-0.939443 -0.00388982 -0.00274915
-0.987412 -0.00363441 -0.000188212
-1.07053 -0.0143335 -0.00119162
-0.466952 -0.112885 -0.00164499
-0.484449 -0.0466377 -0.000869466
-2.26302e-032 -9.99723e-034 -1.04768e-033
-0.51974 -0.0912619 0.00133118
-0.57587 -0.0898471 0.00109045
-0.255088 -0.0526211 0.00268153
-0.534632 -0.0570305 -0.00317456
-0.286921 -0.0370654 -0.00068032
-0.324794 -0.0404225 -0.00131815
-0.34062 -0.375898 0.000514915
-0.367679 -0.216929 0.0062172
-0.478494 -0.257906 0.000435537
-0.169285 -0.167838 0.000713011
-0.365804 -0.314406 0.00209085
-0.408452 -0.316788 0.000745275
-0.296485 -0.303813 0.000952308
-0.436404 -0.244715 0.00414152
-0.29144 -0.232632 0.00556674
-0.319347 -0.23218 0.00167992
2.12078e-032 2.63426e-033 -2.01885e-033
0.264881 0.028496 -0.000557153
3.22552e-032 7.90798e-033 -4.62325e-033
1.55475e-032 6.83636e-034 -2.17816e-033
0.135686 0.0206938 -0.00318806
4.138e-017 3.76249e-018 1.44631e-018
2.30093e-018 2.74961e-019 -7.75329e-020
0.160889 0.0220609 -0.00105577
0.148773 0.0117204 -0.00221299
-5.15855e-017 -5.68575e-018 8.70382e-019
2.05871e-017 7.65858e-018 9.47265e-019
-7.69937e-033 -2.50611e-033 -4.53594e-034
-0.41812 -0.156103 -0.00855956
-9.52536e-033 -3.59004e-033 -3.08814e-033
1.01974e-017 3.95944e-018 4.77812e-019
-0.235886 -0.0878916 -0.00818394
1.27689e-016 2.77932e-017 3.5909e-018
-0.233432 -0.0912134 -0.0082906
1.24945e-016 4.54294e-017 5.38012e-018
-0.260704 -0.0886589 -0.00882195
-0.0278163 -0.203907 -0.000359901
-0.0164032 -0.268759 -0.00298802
-0.0100701 -0.194279 0.000583491
-0.0407721 -0.401333 0.00104265
-0.023922 -0.257113 -0.000387862
-0.0188674 -0.199896 -0.000236504
-0.0368348 -0.315438 0.000312126
-0.0146935 -0.25709 -0.000963054
-0.0304514 -0.370078 -0.00056231
-0.0251356 -0.313853 0.000842338
0.0128428 0.365549 0.0162033
1.29572e-033 3.34304e-032 2.3965e-033
1.1236e-034 2.82799e-032 1.94941e-033
-0.0023318 0.336084 0.0211103
0.00794768 0.216793 0.0140741
0.00676054 0.217722 0.0145351
0.00555366 0.392435 0.0207875
2.14559e-029 -6.07977e-030 6.24956e-029
0.00271891 0.208296 0.0149976
0.00146328 0.184889 0.0139533
-2.22098e-033 -9.98028e-033 -3.81247e-034
-0.0787174 -0.356559 -0.000615043
-0.0389491 -0.187911 -0.00113565
-0.0500423 -0.21357 -0.000104339
-0.0495014 -0.164418 -0.00117522
-0.022608 -0.101406 -0.000473722
-0.0921297 -0.328963 -0.000856683
-0.0639771 -0.292268 -0.00058759
-0.0659708 -0.235707 -0.000643767
1.45777e-033 1.89686e-032 2.03182e-033
-4.68869e-018 -1.14012e-016 -9.13192e-018
4.61337e-018 9.96273e-017 7.81684e-018
0.0094235 0.202445 0.0125807
-3.21215e-032 -1.08857e-032 -5.12609e-033
-3.62788e-032 1.66599e-034 2.39972e-034
-5.44712e-032 -6.53598e-033 -3.69962e-033
5.93204e-017 1.33364e-018 3.52736e-020
-0.442759 -0.00987703 -0.00106365
3.07191e-030 -4.39187e-029 -2.22449e-029
-0.434564 -0.00663505 0.000188729
-1.5455e-017 9.52322e-019 9.07109e-021
-0.440928 -0.00557734 -0.000480354
9.38025e-032 -3.02088e-033 -1.63265e-033
0.393327 0.000221899 0.000542564
5.04101e-032 2.26661e-033 2.9122e-033
0.383178 -0.00157334 0.00113909
0.337235 -0.00109286 0.00031735
-5.40569e-017 1.10539e-019 -2.57804e-019
0.304101 -0.000764681 0.00122456
0.318839 -0.000106544 0.000921501
0.433872 -0.000654979 0.00133324
0.321726 -0.000909949 0.00141593
-0.0644563 -0.240748 -0.000223527
-0.087595 -0.205577 -0.00118885
-0.141435 -0.469082 -0.000230013
-0.0638511 -0.220287 -0.000198869
-0.0829092 -0.241023 -0.000888179
-0.109518 -0.386831 -0.000551461
-0.0711033 -0.255848 -0.000291653
-0.139606 -0.380412 -0.000464212
-0.0783846 -0.217756 -0.000583464
-0.116569 -0.395333 -0.000526979
-1.82894e-032 -1.44121e-033 -3.88759e-034
-0.565468 -0.0852674 0.0046623
-2.28907e-032 -2.01264e-033 -1.72569e-033
-5.95356e-032 -2.85489e-033 -3.17741e-033
-0.318348 -0.0372127 0.00722121
-8.32551e-017 -6.91396e-018 2.87114e-018
1.1519e-016 6.58994e-018 -3.48724e-018
-0.310266 -0.0341448 0.00703797
-0.321784 -0.0258675 0.00592973
-1.8946e-017 -9.55593e-019 7.19976e-019
-0.343588 -0.0737092 -0.00821066
-0.577133 -0.193858 0.000408538
-0.621567 -0.0842924 -0.000704377
-0.345992 -0.0961524 -0.00339087
-0.479089 -0.137312 -0.00397483
-0.497928 -0.0855462 -0.00506985
-0.3486 -0.0892425 -0.00597723
-0.630533 -0.139334 -0.00228351
-0.488487 -0.148489 -0.000897338
-0.504715 -0.100023 -0.00324502
-0.53037 -0.0174501 -0.00278242
-1.8859e-032 -1.88402e-033 2.41393e-033
-6.55349e-032 -9.45025e-033 1.32427e-032
-3.87878e-032 -3.69293e-033 1.22816e-032
-0.285197 -0.00757634 -0.00222086
-0.28346 -0.00773648 0.000203315
-0.308693 -0.00778515 -4.5507e-005
-2.02153e-016 -4.38834e-018 -4.17223e-019
-1.45974e-016 -2.94718e-018 -3.88648e-019
5.85239e-031 -2.07131e-029 4.68225e-029
-0.0442134 -0.300032 -0.000101017
-0.0435457 -0.251637 -0.000863393
-0.0671267 -0.288653 -0.000712754
-0.0646801 -0.352012 -0.000671524
-0.61268 -0.129718 0.00412329
-0.324737 -0.0271618 0.0109169
-0.488179 -0.171725 0.00434926
-0.365344 -0.114835 0.0109814
-0.561404 -0.211683 0.00296489
-0.499748 -0.0813051 0.0100603
-0.431338 -0.15342 0.00876181
-0.684038 -0.0146271 0.000552934
-3.09706e-017 -2.03412e-019 -6.38475e-021
-0.688061 -0.0104346 3.55306e-005
-0.428041 -0.00920364 0.00114909
3.21824e-030 -2.95461e-029 5.8717e-029
-0.429402 -0.00728681 0.00151886
-0.388426 -0.0088355 0.00109339
-0.796209 -0.0162238 0.000631876
-0.499251 -0.00499211 0.000777883
-2.13943e-032 -5.47859e-033 6.98562e-033
-0.289749 -0.00875614 -0.00175659
-6.53461e-017 -1.64786e-018 -3.438e-020
-8.6206e-017 -2.11714e-018 -7.19745e-019
-0.943758 -0.0436761 -0.00122425
-1.05024 -0.0332405 -0.000207553
-0.895696 -0.0276457 -0.00089777
-0.830465 -0.0215753 -0.000722518
-1.0522 -0.0417737 -0.000167078
-0.959696 -0.025755 0.00028143
-1.00338 -0.0248211 2.21997e-005
1.60678e-017 1.08809e-019 -2.52453e-019
8.44499e-032 -5.12249e-033 3.33328e-033
3.98205e-032 3.2808e-033 -7.19365e-033
0.386172 -0.00177029 -0.000749023
-2.46471e-017 -6.87239e-020 2.78665e-019
-1.90433e-031 -3.14728e-029 9.54398e-029
0.235157 -0.000720126 -0.00257922
-2.53757e-017 4.06393e-021 2.65102e-019
0.262942 -0.00104499 -0.00180609
0.23784 0.000110572 -0.00178295
-2.59781e-034 2.54942e-032 2.01142e-033
-3.38948e-034 4.29757e-032 7.03603e-033
-2.42323e-035 1.663e-032 -2.72273e-034
-0.0017375 0.188678 0.0145293
0.00262131 0.197657 0.0157134
5.26937e-005 0.1835 0.0132754
-9.06519e-019 -9.69418e-017 -8.74303e-018
-1.1522e-019 4.53275e-017 3.83017e-018
8.52631e-019 -9.46424e-017 -8.18617e-018
0.0205635 0.701592 0.00517469
-0.0241462 0.516585 0.00692277
-0.0199225 0.50443 -0.0167498
-0.0247287 0.592093 -0.00329357
-0.00690451 0.753303 0.00726148
-0.0033453 0.755921 -0.00981001
-0.00657087 0.80787 0.000368957
-0.0236118 0.556583 -0.00468238
-0.0244337 0.555278 0.00280501
-0.0230833 0.565085 -0.0119932
0.307784 0.0931308 0.0258472
4.40431e-032 1.25728e-032 -9.77562e-033
0.370225 0.0090024 -0.000173343
0.323072 0.0611153 0.00700818
0.195322 0.0198193 0.000634965
0.33391 0.020651 0.00123932
0.16581 0.0200552 0.011202
0.338846 0.0283763 0.00265759
0.220744 0.0109269 0.00064924
-1.7542e-018 -2.13519e-017 1.40167e-019
-2.97582e-033 -8.43212e-033 5.21526e-034
-0.00646764 -0.0966501 0.000461502
-0.00689813 -0.0991132 0.000394181
-3.69959e-018 -4.37977e-017 2.50438e-019
-0.0137004 -0.106787 -0.000247352
-0.0127597 -0.107074 -0.00103356
-5.53396e-018 -2.11526e-017 -7.53361e-020
2.78692e-033 -7.25053e-033 2.49697e-034
-0.023985 -0.100644 -0.000415852
9.33205e-018 4.83464e-017 7.10557e-019
2.02575e-029 -5.50886e-030 -1.53786e-031
-0.0165034 -0.102178 -0.001752
1.7441e-017 9.73697e-017 1.47251e-018
-0.155009 -0.270073 -0.000349869
-5.09284e-033 -7.32804e-033 3.8412e-035
-2.38631e-033 -4.75203e-033 -2.98127e-034
-3.2411e-033 -1.96895e-033 -8.01114e-034
-0.0947549 -0.151406 0.000162812
-0.0895888 -0.154516 0.000443123
-0.0861904 -0.15549 -0.000358841
-4.42886e-017 -7.08379e-017 3.23697e-019
-2.75622e-016 -4.06498e-016 -5.62091e-020
-1.74571e-016 -3.10809e-016 4.6046e-019
8.15879e-033 1.10958e-032 -7.30201e-033
4.97664e-033 1.35835e-032 -9.56306e-033
3.13523e-033 2.49218e-032 -3.55496e-033
0.00602861 0.233404 -0.00640495
-1.51416e-018 -6.01468e-017 2.34961e-018
-2.90405e-019 -7.24831e-018 3.55704e-019
0.00351779 0.11792 -0.00354343
1.40101e-018 4.39373e-017 -2.37993e-018
0.00266986 0.124836 -0.00458331
0.00473061 0.129421 -0.00607006
8.85899e-032 -7.54412e-034 4.07929e-033
9.04505e-032 -2.78535e-034 -6.29022e-035
0.390369 0.00366991 -0.00028564
2.01491e-017 3.97236e-019 -2.16773e-020
-2.20281e-017 -3.15748e-019 8.0415e-020
0.307965 0.0069725 -8.86144e-005
-5.02675e-017 7.97409e-020 3.48193e-019
0.336712 0.00372414 -0.000537791
0.298938 0.000763968 -0.00155721
6.42573e-020 1.1853e-018 6.24359e-020
0.00757244 0.507489 0.0266602
3.05708e-033 8.46525e-032 6.76125e-033
0.00873155 0.282435 0.0154764
-4.83285e-018 -2.13173e-016 -8.62884e-018
0.0204757 0.458267 0.0161938
0.0091358 0.262512 0.0177127
0.0156367 0.658859 0.0191511
0.0186754 0.478633 0.0208381
0.0169252 -0.049508 0.00100983
0.0143186 -0.00723631 -0.000803427
-0.104654 -0.209692 0.000235288
-0.108171 -0.101194 -0.008218
0.0143457 -0.0371708 0.000639131
-0.0474152 -0.144856 -0.00275433
-0.0493388 -0.0920393 -0.00255684
-0.0321865 -0.0912886 -0.00674379
-0.0401727 -0.052138 -0.00562591
-0.0999193 -0.161072 -0.0053199
-0.00195933 0.492271 0.0267052
0.00847374 0.533928 0.0256779
0.00861089 0.322263 0.0205583
0.0100142 0.67114 0.0196271
0.000407323 0.46498 -0.015758
-0.0129847 0.548043 -0.00747059
-0.0108405 0.315575 -0.0140703
-0.000839722 0.485618 -0.0212797
-0.0064665 0.531628 -0.0126875
-0.00702394 0.418917 -0.016288
0.000231637 0.476392 -0.0194076
-0.0136927 0.451947 -0.012857
-0.00762864 0.545103 -0.0143227
-0.00821334 0.416703 -0.019137
1.9329e-017 6.73342e-017 5.41463e-018
4.72503e-017 9.07336e-018 -2.77339e-018
0.349246 0.395375 -0.00696538
0.249796 0.134485 -0.00982615
-8.11188e-032 2.80592e-029 4.60856e-018
0.248063 0.319458 -0.0124345
0.178891 0.150316 -0.0215127
0.27175 0.194703 -0.0252679
0.200871 0.0898491 -0.0189884
0.328811 0.25514 -0.0112844
9.56748e-019 3.92827e-017 3.60494e-018
0.00230055 0.31818 0.0172062
-5.10206e-034 3.22179e-032 2.61945e-033
-0.00219214 0.253247 0.00899465
0.00272954 0.168002 0.0124192
1.44407e-018 5.86949e-017 8.49796e-018
0.000970298 0.157986 0.00855185
3.18875e-005 0.169386 0.0116459
-0.00076176 0.29148 0.0130717
-0.00137397 0.140953 0.00766349
2.10229e-033 -1.27479e-032 1.33605e-033
-0.0372091 -0.343629 -0.000406908
-1.14572e-032 -3.98498e-032 -5.89434e-033
-5.65111e-033 -1.29594e-032 -4.5574e-033
-0.0256857 -0.198677 -0.000175374
-2.64197e-017 -2.56005e-016 2.0918e-019
2.25969e-029 -2.41203e-030 1.54341e-029
-0.0161004 -0.197766 0.000155463
-0.0249353 -0.197532 -0.00147038
-2.22658e-017 -2.21835e-016 -1.10327e-018
0.418628 3.08576e-005 -0.000112589
3.44852e-032 7.33813e-033 -2.9423e-033
3.57379e-032 6.03526e-033 6.22786e-034
6.38786e-032 -6.68494e-034 -4.46294e-035
0.281338 0.000169659 -5.5202e-005
0.282525 -9.40094e-005 -4.21774e-005
0.280918 -0.000265149 0.000119124
-1.57452e-016 -2.67436e-020 1.82455e-020
-3.99232e-031 1.95509e-020 -2.11898e-020
2.05386e-017 -2.17251e-020 7.72764e-021
0.160638 0.573375 -0.0185095
-0.0189366 0.807646 0.016834
-0.0218774 0.652444 -0.0383555
0.0313011 0.688448 0.0155719
0.0734863 0.76848 -0.00675069
0.0500119 0.648578 -0.0308989
0.11696 0.700512 -0.0128091
-0.0259941 0.815496 -0.0153734
0.043942 0.807901 0.0147026
0.0323997 0.804237 -0.0182978
9.68475e-032 -3.72993e-033 -1.61288e-033
8.66537e-032 3.46562e-033 -6.35425e-034
5.09042e-032 -4.18498e-034 -4.34386e-034
0.38321 -0.00184841 0.000287748
3.16042e-019 -2.81686e-022 -5.58288e-022
3.1198e-019 6.63364e-022 -1.29939e-021
0.302341 0.000429974 -0.00122405
7.37619e-019 2.00997e-021 -2.10192e-021
0.270444 0.000593674 -0.000582481
0.30791 -0.000464011 -0.000375727
-1.22193e-032 -5.78689e-033 -2.03155e-034
-0.307759 -0.16223 -0.00766654
-1.16046e-032 -7.12273e-033 -9.08224e-034
-0.210233 -0.123055 -0.00674107
-0.209732 -0.104819 -0.00638301
4.48008e-016 2.71432e-016 1.76751e-017
-0.363002 -0.16231 -0.00908252
-0.184802 -0.104168 -0.00660644
-0.200619 -0.097111 -0.00751872
-0.707281 -3.23951e-005 0.00504021
-1.80863e-031 -9.43813e-033 -8.50166e-033
-2.97036e-032 -1.52989e-032 -4.15331e-032
-0.706771 0.00373054 0.00291286
-0.468478 0.0016163 0.00216454
-0.421322 -1.09533e-005 0.00515588
-0.782372 0.00218907 0.00298603
2.5083e-031 3.26252e-029 6.08434e-029
-0.398161 0.00266153 0.00195535
-0.425372 0.00469202 0.00283504
7.17879e-032 -5.6573e-033 4.03795e-033
3.15132e-032 -2.10925e-034 3.11799e-033
3.70221e-032 1.53489e-032 -1.1234e-032
-3.75648e-017 1.51008e-019 -5.4482e-020
-1.00124e-018 -1.70339e-020 1.16008e-020
0.243963 0.00105246 0.000129848
-1.37441e-017 -3.113e-019 1.66962e-019
0.224749 0.00230869 0.000194798
0.241212 0.00855363 -0.00369317
9.88086e-032 -5.20738e-033 -2.64234e-033
0.311343 -0.00271918 -0.00112998
0.261196 -0.00250629 -0.000771652
0.280763 -0.00355196 0.000300294
0.431073 -0.00220137 -1.20282e-005
0.44411 -0.00252817 5.93647e-005
0.392062 -0.00206971 -0.000684777
3.79732e-032 1.05349e-033 -3.21375e-033
6.44301e-032 -3.32837e-034 -8.53149e-033
4.33799e-017 6.48124e-019 -4.56378e-020
3.74472e-017 5.20517e-019 -5.59516e-019
0.22326 0.00612036 -0.00055805
3.41552e-018 -1.3288e-020 -2.79377e-020
0.230911 0.00113995 -0.00249445
1.05144e-031 -7.94793e-033 -8.98424e-035
0.382719 0.000442861 -0.000497982
6.85987e-032 7.9498e-033 -6.77703e-033
0.234313 -0.000819311 -0.000752578
-7.86837e-017 5.38569e-020 6.25781e-019
0.298826 -0.00135289 -0.00142397
0.243251 -0.000329471 -0.000754327
0.401247 -0.000772421 -0.000784631
0.257241 0.000583892 -0.00215354
3.4846e-032 -1.32778e-032 2.27306e-032
8.97018e-032 3.70764e-033 5.69675e-034
1.01385e-031 -1.02798e-032 5.05073e-033
2.70285e-017 -3.44923e-019 8.21751e-019
-2.90623e-017 4.57064e-019 -7.66194e-019
0.236595 -0.00235622 0.00592668
-1.90173e-017 2.76246e-019 -3.32028e-019
0.246576 -0.00215146 0.00350787
0.246201 -0.00301027 0.00232019
-3.17512e-033 7.64274e-034 -2.60469e-033
-0.165887 0.140598 -0.00509058
-4.01883e-033 8.35173e-033 3.39107e-033
0.05845 0.244163 -0.000524942
-0.0586342 0.113745 -0.00335982
-3.86786e-018 -9.12082e-018 -1.91114e-018
0.00416714 0.173747 6.66017e-005
-0.063411 0.063794 0.00191779
-0.0690317 0.208441 0.000430447
-0.00961965 0.105914 0.00420129
2.91211e-032 -3.6754e-032 4.32254e-032
2.99025e-032 -3.84303e-032 9.49808e-034
2.61485e-032 2.19328e-032 6.9939e-035
0.18047 0.0450345 0.0395736
0.219128 0.0557158 0.0209986
0.227146 0.133219 0.0452537
-7.96431e-031 5.00228e-029 -3.21003e-029
4.93318e-017 3.83315e-017 1.02649e-017
-6.44649e-017 -3.13899e-017 -1.1758e-017
4.76933e-032 3.68846e-033 1.3685e-033
-8.32108e-031 -1.95697e-029 4.47631e-020
4.90721e-017 2.96378e-020 -4.44464e-019
0.244209 0.0035364 -0.000721678
-0.0874823 -0.291671 -0.000362663
-6.008e-033 -1.36832e-032 -1.25487e-033
-0.138301 -0.288205 -0.00121701
-7.32953e-033 -2.19225e-032 3.0056e-034
-0.0582818 -0.157747 -0.000117327
-0.117064 -0.298825 -0.00145939
-0.0586673 -0.173702 0.000357957
-0.0793992 -0.174131 -0.00137064
9.82849e-018 2.39132e-017 2.02476e-019
-0.0699502 -0.165099 -0.00089004
-0.240816 -0.320236 -0.00131684
-0.220867 -0.434022 3.24095e-005
-0.105659 -0.202191 0.00319812
-0.184087 -0.280064 -0.000926661
-0.239142 -0.392321 -0.000393545
-0.169442 -0.281683 0.00127695
-0.187453 -0.347441 1.90793e-005
-0.115533 -0.215176 0.00542967
-0.182443 -0.357575 0.00128638
0.381178 0.00144264 -2.80403e-005
1.01943e-031 -9.64105e-034 -8.01535e-033
7.40356e-032 -1.15246e-033 3.19529e-033
0.391672 0.000620789 -0.000717269
0.248963 0.0017785 -0.000634556
0.234805 0.00152178 0.000579273
0.397445 0.00111891 -0.00101415
-1.63187e-030 -8.30388e-030 -1.03245e-028
0.32512 -0.00114534 -0.00128764
0.285988 -0.000285367 -0.000262237
3.78834e-032 8.77275e-034 -8.35749e-034
9.27706e-032 3.85061e-033 1.39453e-033
7.8066e-032 2.64986e-034 -4.58415e-033
-2.24251e-031 4.65722e-029 8.20983e-029
0.238682 -0.000496876 -0.000148918
5.18904e-017 6.65463e-020 -2.47831e-020
0.261478 0.000339406 0.000486538
-2.45634e-017 -1.05994e-019 4.88701e-020
0.238999 -2.32911e-005 -0.000361518
3.9562e-032 7.58188e-034 8.9724e-034
6.77646e-032 3.55296e-033 5.0584e-033
0.415209 -0.000267452 0.000160723
8.47719e-032 -5.66539e-033 9.98084e-034
6.79058e-017 -1.18119e-019 3.83384e-019
0.313378 -0.000533991 0.000735557
-5.35871e-017 1.77957e-019 -1.38254e-019
0.32208 -0.00034397 0.00176039
2.54547e-017 5.84933e-020 1.7726e-019
0.305721 -0.000966269 0.00040646
0.380519 0.00146338 -0.000390972
8.44748e-032 4.95692e-033 7.33631e-033
0.436948 0.000487044 -0.000123667
0.279034 0.000276471 -0.00026775
0.382796 0.00190344 0.000551093
0.304857 -0.00105742 0.000808274
0.442112 0.000712839 -0.000812044
0.310036 0.000966853 -0.000412742
-4.09608e-032 -9.78538e-033 5.16141e-033
-0.293856 -0.00647239 0.00180525
7.11391e-017 2.34491e-018 -5.41006e-019
-0.391819 -0.00555884 0.00212789
-0.638506 -0.0141494 -3.33105e-006
-1.21325e-033 4.16413e-032 -3.53872e-033
-1.26122e-034 4.11778e-032 -3.55869e-033
-0.00491112 0.279947 -0.0182073
-0.000109742 0.271453 -0.018846
-0.00643513 0.186714 -0.0125183
6.06768e-019 -2.93138e-017 2.45488e-018
-0.00403146 0.21487 -0.0149336
0.00066429 0.566588 0.00511738
0.0132126 0.347877 0.00951231
0.00426269 0.522049 -4.76269e-005
0.000342431 0.462464 0.00748576
0.00979493 0.497432 0.00892948
0.00392148 0.547364 0.00176447
0.000628295 0.519933 0.00787453
0.00852601 0.466554 0.00442271
0.00587891 0.438567 0.00858359
0.00238625 0.516403 0.0043662
0.00825713 0.371135 0.014805
0.00209357 0.484751 0.014905
0.00117499 0.40313 0.0117959
-1.84048e-031 2.60249e-032 -9.95925e-033
-2.19772e-031 -1.69659e-032 -4.86942e-034
-6.6725e-032 -2.22778e-032 -6.36456e-034
-0.526738 -0.00706704 -0.000392704
-0.497588 -0.00852309 -0.00175706
-0.497086 -0.00861198 -0.000879554
-1.13017e-016 5.21288e-020 -3.54522e-019
-1.33737e-016 -2.49095e-018 -3.10597e-019
-1.27264e-016 -2.81426e-018 -6.13546e-019
-1.66037e-033 -6.39028e-033 -1.16372e-033